/*--------------------------------*- C++ -*----------------------------------*\
| =========                 |                                                 |
| \\      /  F ield         | OpenFOAM: The Open Source CFD Toolbox           |
|  \\    /   O peration     | Version:  v2012                                 |
|   \\  /    A nd           | Website:  www.openfoam.com                      |
|    \\/     M anipulation  |                                                 |
\*---------------------------------------------------------------------------*/
FoamFile
{
    version     2.0;
    format      ascii;
    class       volScalarField;
    location    "212.5";
    object      p;
}
// * * * * * * * * * * * * * * * * * * * * * * * * * * * * * * * * * * * * * //

dimensions      [0 2 -2 0 0 0 0];


internalField   nonuniform List<scalar> 
171728
(
0.00353288
0.00353203
0.00353195
0.00353287
0.00349699
0.00349565
0.00349561
0.00349857
0.0034593
0.00345744
0.00345736
0.00345975
0.00341487
0.00341348
0.00341338
0.00341564
0.0033664
0.00336504
0.00336498
0.0033674
0.00331788
0.0033165
0.00331664
0.00331893
0.00326991
0.00326862
0.00326875
0.0032711
0.00322258
0.00322138
0.0032215
0.00322388
0.00317635
0.0031753
0.00317525
0.00317774
0.0031311
0.00313014
0.00313011
0.0031326
0.00308671
0.00308587
0.00308582
0.00308833
0.00304308
0.00304235
0.00304226
0.00304478
0.003
0.00299929
0.00299929
0.00300179
0.0029573
0.0029568
0.00295659
0.00295915
0.00291492
0.00291447
0.0029145
0.00291701
0.00287284
0.00287246
0.00287244
0.00287489
0.00283107
0.0028305
0.00283077
0.00283291
0.00278972
0.00278951
0.0027893
0.00279191
0.00274872
0.00274849
0.0027482
0.00275059
0.00270801
0.00270757
0.00270762
0.00270974
0.00266766
0.00266747
0.00266742
0.00266958
0.0026276
0.00262743
0.00262754
0.00262937
0.00258785
0.0025875
0.00258745
0.00258955
0.00254837
0.00254835
0.00254829
0.00255032
0.00250908
0.00250891
0.00250888
0.00251072
0.00247013
0.00247
0.00247003
0.00247229
0.00243142
0.00243132
0.0024313
0.00243346
0.00239292
0.00239285
0.00239283
0.00239514
0.00235463
0.00235455
0.00235461
0.00235689
0.00231654
0.00231655
0.00231649
0.00231878
0.00227864
0.00227867
0.00227869
0.00228098
0.00224089
0.00224096
0.00224097
0.00224317
0.00220334
0.0022035
0.00220346
0.00220559
0.00216598
0.00216613
0.00216614
0.00216821
0.00212876
0.00212894
0.00212895
0.00213098
0.00209176
0.00209193
0.00209191
0.00209393
0.00205495
0.00205511
0.00205518
0.00205711
0.00201841
0.00201852
0.0020185
0.00202053
0.00198196
0.00198206
0.00198206
0.00198406
0.00194591
0.00194596
0.00194599
0.00194793
0.00191023
0.00191025
0.00191024
0.00191222
0.00187507
0.00187502
0.00187502
0.00187697
0.00184027
0.00184018
0.00184019
0.00184215
0.00180621
0.00180614
0.00180611
0.00180802
0.00177225
0.00177195
0.00177192
0.00177381
0.00173688
0.00173661
0.0017366
0.00173862
0.00170009
0.00170007
0.00170008
0.00170226
0.00166291
0.0016632
0.00166321
0.00166548
0.00162724
0.00162745
0.00162746
0.00162963
0.00159349
0.00159316
0.00159317
0.00159512
0.00156109
0.00156049
0.00156049
0.00156225
0.00152948
0.00152857
0.00152857
0.00153018
0.00149724
0.00149637
0.00149637
0.00149799
0.00146392
0.00146336
0.00146336
0.00146511
0.00142964
0.00142935
0.00142935
0.00143123
0.00139462
0.00139448
0.00139448
0.00139647
0.00135914
0.00135908
0.00135908
0.00136111
0.00132343
0.00132339
0.00132339
0.00132545
0.00128762
0.00128759
0.00128759
0.00128965
0.00125179
0.00125176
0.00125176
0.00125383
0.00121595
0.00121592
0.00121592
0.00121799
0.00118011
0.00118008
0.00118008
0.00118214
0.00114427
0.00114424
0.00114424
0.0011463
0.00110842
0.00110839
0.00110839
0.00111046
0.00107258
0.00107256
0.00107256
0.00107462
0.00103674
0.00103671
0.00103671
0.00103877
0.00100089
0.00100086
0.00100086
0.00100293
0.000965048
0.000965021
0.00096502
0.000967085
0.000929203
0.000929174
0.000929173
0.000931238
0.000893359
0.00089333
0.00089333
0.000895396
0.000857515
0.000857488
0.000857489
0.000859554
0.000821672
0.000821642
0.000821642
0.000823707
0.000785828
0.000785798
0.000785798
0.000787863
0.000749985
0.000749958
0.000749959
0.000752024
0.000714142
0.000714114
0.000714114
0.000716179
0.0006783
0.000678271
0.000678271
0.000680337
0.000642458
0.000642429
0.00064243
0.000644493
0.000606616
0.000606588
0.000606587
0.000608654
0.000570774
0.000570744
0.000570743
0.000572809
0.000534932
0.000534904
0.000534903
0.000536966
0.00049909
0.000499063
0.000499063
0.000501128
0.000463249
0.000463219
0.00046322
0.000465286
0.000427408
0.000427379
0.000427379
0.000429441
0.000391567
0.00039154
0.000391538
0.000393602
0.000355726
0.000355697
0.000355697
0.000357762
0.000319885
0.000319854
0.000319857
0.000321921
0.000284044
0.000284015
0.000284015
0.000286077
0.000248203
0.000248176
0.000248175
0.000250235
0.000212362
0.000212335
0.000212334
0.000214391
0.00017652
0.000176491
0.000176491
0.000178546
0.000140677
0.000140651
0.000140649
0.000142696
0.000104824
0.000104805
0.000104805
0.000106832
6.89779e-05
6.89555e-05
6.89538e-05
7.09468e-05
3.39323e-05
3.33755e-05
3.33719e-05
3.51973e-05
5.7991e-06
6.39736e-06
6.39655e-06
4.9452e-06
0.00353775
0.00353551
0.00353571
0.00353786
0.00353559
0.00353556
0.00354146
0.00354146
0.00354144
0.00354147
0.0035357
0.00353545
0.00353775
0.00353555
0.00353545
0.00353769
0.00353291
0.0035033
0.00353196
0.003532
0.00350512
0.00350523
0.00353299
0.00350333
0.00353197
0.00353199
0.00350511
0.00350513
0.00353195
0.00350514
0.00350516
0.00353292
0.00350333
0.00353195
0.00350513
0.00350515
0.00350333
0.00349857
0.00346525
0.00349558
0.00349556
0.00346745
0.00346762
0.0034986
0.00346524
0.00349562
0.00349568
0.00346753
0.0034675
0.00349557
0.00346756
0.00346748
0.0034986
0.00346524
0.00349558
0.00346755
0.00346745
0.00346525
0.00345977
0.00342187
0.00345741
0.00345743
0.00342492
0.00342497
0.00345976
0.00342187
0.00345742
0.00345744
0.00342497
0.00342499
0.00345736
0.00342504
0.00342499
0.00345976
0.00342188
0.00345738
0.00342499
0.00342498
0.00342188
0.00341565
0.0033739
0.00341333
0.0034134
0.00337712
0.00337715
0.00341565
0.00337385
0.00341335
0.00341329
0.00337715
0.00337708
0.00341332
0.00337728
0.00337711
0.00341565
0.00337391
0.0034133
0.00337711
0.00337713
0.00337388
0.00336742
0.00332534
0.00336493
0.00336501
0.0033285
0.00332851
0.00336739
0.00332528
0.00336497
0.00336499
0.00332857
0.00332846
0.00336491
0.00332857
0.00332849
0.00336743
0.00332534
0.00336492
0.0033286
0.0033285
0.00332533
0.00331895
0.00327743
0.00331647
0.00331647
0.00328059
0.00328059
0.00331891
0.00327743
0.00331652
0.00331651
0.00328061
0.00328052
0.00331646
0.00328058
0.00328057
0.00331896
0.00327742
0.00331648
0.00328075
0.00328059
0.00327742
0.00327111
0.00323008
0.00326866
0.00326871
0.00323313
0.00323315
0.00327112
0.00323009
0.00326868
0.00326865
0.00323316
0.00323312
0.00326866
0.00323306
0.00323313
0.00327112
0.00323008
0.00326866
0.00323323
0.00323315
0.00323008
0.00322388
0.00318378
0.0032214
0.00322132
0.0031867
0.00318668
0.00322389
0.00318385
0.00322139
0.00322135
0.00318671
0.00318669
0.00322142
0.00318669
0.00318671
0.00322389
0.00318375
0.00322142
0.00318664
0.0031867
0.00318378
0.00317774
0.00313854
0.00317528
0.00317518
0.00314135
0.00314128
0.00317781
0.00313854
0.00317526
0.00317526
0.00314133
0.00314134
0.00317527
0.00314132
0.00314132
0.00317772
0.00313855
0.00317525
0.00314129
0.00314133
0.00313853
0.00313262
0.00309411
0.00313013
0.0031301
0.00309682
0.00309678
0.0031326
0.00309414
0.00313011
0.00313014
0.00309683
0.00309685
0.00313014
0.00309681
0.00309682
0.00313264
0.00309409
0.00313012
0.0030968
0.00309681
0.00309412
0.00308834
0.00305044
0.00308586
0.0030858
0.00305315
0.00305311
0.00308833
0.00305066
0.00308585
0.00308583
0.00305311
0.00305315
0.00308589
0.00305313
0.00305318
0.0030883
0.00305044
0.00308587
0.00305316
0.00305314
0.00305047
0.00304475
0.00300741
0.00304228
0.00304229
0.00301001
0.00301001
0.00304493
0.00300728
0.00304229
0.00304226
0.00300998
0.00300993
0.00304237
0.00301
0.00301013
0.00304474
0.00300734
0.00304235
0.00300999
0.00301011
0.00300743
0.0030018
0.00296472
0.00299936
0.00299926
0.00296735
0.00296733
0.00300173
0.00296478
0.00299936
0.00299933
0.0029673
0.0029673
0.00299941
0.00296732
0.00296745
0.00300175
0.00296466
0.00299936
0.00296737
0.00296741
0.00296469
0.00295918
0.00292236
0.00295668
0.00295686
0.00292502
0.00292493
0.00295921
0.0029223
0.00295669
0.00295664
0.00292495
0.00292493
0.00295686
0.00292496
0.00292502
0.00295906
0.00292243
0.00295685
0.00292498
0.00292502
0.00292246
0.00291683
0.00288024
0.0029144
0.00291445
0.0028829
0.00288293
0.00291683
0.00288036
0.00291437
0.0029144
0.00288287
0.00288288
0.00291472
0.0028829
0.00288253
0.00291691
0.0028803
0.0029147
0.00288287
0.00288253
0.00288025
0.00287474
0.00283846
0.00287226
0.00287244
0.00284104
0.00284108
0.00287493
0.00283829
0.00287226
0.00287239
0.00284106
0.00284118
0.00287252
0.00284104
0.00284099
0.00287485
0.0028386
0.00287255
0.0028411
0.00284104
0.00283832
0.00283306
0.00279703
0.00283066
0.00283048
0.00279952
0.00279992
0.00283292
0.00279714
0.0028307
0.00283085
0.00279955
0.00279946
0.00283062
0.00279997
0.00279958
0.0028332
0.00279698
0.00283062
0.0027994
0.00279961
0.00279719
0.00279175
0.00275594
0.00278943
0.00278951
0.00275845
0.00275847
0.00279178
0.00275603
0.00278942
0.00278935
0.00275849
0.00275857
0.00278954
0.00275855
0.00275835
0.00279171
0.00275582
0.00278951
0.0027585
0.00275838
0.00275591
0.00275073
0.00271516
0.00274845
0.00274847
0.00271776
0.00271782
0.00275075
0.00271499
0.00274843
0.00274822
0.00271774
0.00271796
0.0027482
0.00271783
0.00271795
0.00275057
0.00271502
0.0027482
0.00271795
0.00271795
0.00271492
0.00270998
0.00267467
0.00270772
0.00270759
0.00267735
0.00267753
0.00270975
0.00267456
0.00270771
0.00270763
0.00267734
0.00267756
0.00270761
0.00267754
0.00267748
0.00270982
0.00267455
0.0027076
0.00267757
0.00267748
0.00267465
0.00266939
0.00263439
0.00266717
0.00266751
0.00263752
0.00263718
0.00266952
0.00263452
0.00266717
0.00266741
0.00263752
0.00263738
0.00266747
0.00263723
0.00263736
0.00266947
0.0026345
0.00266746
0.00263737
0.00263737
0.00263441
0.00262934
0.00259452
0.00262739
0.00262743
0.0025974
0.0025975
0.00262937
0.00259457
0.00262741
0.00262755
0.00259739
0.00259739
0.00262738
0.00259754
0.00259745
0.00262958
0.00259462
0.00262738
0.00259739
0.00259745
0.00259462
0.00258953
0.00255526
0.00258771
0.00258749
0.00255809
0.00255814
0.00258946
0.00255527
0.00258773
0.00258747
0.00255809
0.00255819
0.0025876
0.00255813
0.00255813
0.00258943
0.00255544
0.00258761
0.00255821
0.00255813
0.00255531
0.00255016
0.00251579
0.00254818
0.00254834
0.00251867
0.00251872
0.00255045
0.00251591
0.00254818
0.00254829
0.00251867
0.00251861
0.00254826
0.00251872
0.00251866
0.00255044
0.00251568
0.00254826
0.00251861
0.00251865
0.00251578
0.00251088
0.00247716
0.00250894
0.00250892
0.00247972
0.00247966
0.00251087
0.00247695
0.00250894
0.00250889
0.00247973
0.00247972
0.00250884
0.00247967
0.00247975
0.00251073
0.00247719
0.00250883
0.00247973
0.00247975
0.00247717
0.0024722
0.00243848
0.00247002
0.00246999
0.00244097
0.00244099
0.00247203
0.00243861
0.00247002
0.00247003
0.00244097
0.00244096
0.00247006
0.002441
0.00244095
0.00247225
0.00243846
0.00247006
0.00244096
0.00244095
0.00243844
0.00243355
0.00240002
0.00243132
0.00243133
0.00240243
0.00240243
0.00243368
0.00239997
0.00243132
0.00243129
0.00240243
0.00240245
0.0024313
0.00240243
0.00240245
0.00243351
0.00240006
0.00243129
0.00240245
0.00240245
0.00240006
0.00239509
0.0023618
0.00239284
0.00239284
0.00236412
0.00236412
0.00239504
0.00236183
0.00239284
0.00239283
0.00236412
0.00236413
0.00239284
0.00236411
0.00236413
0.00239512
0.00236181
0.00239284
0.00236414
0.00236413
0.00236181
0.00235688
0.00232372
0.00235457
0.00235456
0.00232602
0.00232602
0.00235691
0.00232369
0.00235457
0.0023546
0.00232603
0.00232601
0.00235458
0.00232602
0.00232599
0.00235689
0.00232374
0.00235458
0.002326
0.00232599
0.00232369
0.00231881
0.00228584
0.00231653
0.00231654
0.00228812
0.00228812
0.00231879
0.00228587
0.00231654
0.0023165
0.00228811
0.00228812
0.00231652
0.00228813
0.00228815
0.00231882
0.0022858
0.00231652
0.00228813
0.00228814
0.00228588
0.00228094
0.00224808
0.00227868
0.00227868
0.0022504
0.00225038
0.00228095
0.00224807
0.00227866
0.00227868
0.0022504
0.0022504
0.00227868
0.00225037
0.00225037
0.00228091
0.00224811
0.00227868
0.00225039
0.00225037
0.00224806
0.00224318
0.00221049
0.00224098
0.00224097
0.00221282
0.00221284
0.00224317
0.00221051
0.00224099
0.00224098
0.00221282
0.00221282
0.00224099
0.00221284
0.00221282
0.0022432
0.00221047
0.00224099
0.00221281
0.00221283
0.00221048
0.0022056
0.0021731
0.00220347
0.00220349
0.00217548
0.00217546
0.00220562
0.0021731
0.00220347
0.00220347
0.00217548
0.00217546
0.00220345
0.00217546
0.00217547
0.00220558
0.00217311
0.00220346
0.00217545
0.00217546
0.00217309
0.00216822
0.00213586
0.00216614
0.00216612
0.00213822
0.00213822
0.00216821
0.00213586
0.00216615
0.00216615
0.00213822
0.00213824
0.00216614
0.00213822
0.00213819
0.00216824
0.00213585
0.00216614
0.00213824
0.00213823
0.00213584
0.00213099
0.00209879
0.00212896
0.00212894
0.00210118
0.00210116
0.00213099
0.0020988
0.00212895
0.00212893
0.00210118
0.00210113
0.00212893
0.00210117
0.00210118
0.00213097
0.00209879
0.00212895
0.00210115
0.00210113
0.0020988
0.00209394
0.00206195
0.00209192
0.00209193
0.00206429
0.0020643
0.00209394
0.00206195
0.00209193
0.00209192
0.00206428
0.00206435
0.00209194
0.0020643
0.00206429
0.00209394
0.00206199
0.00209188
0.00206434
0.00206429
0.00206193
0.00205712
0.00202534
0.00205512
0.00205511
0.00202766
0.00202765
0.00205711
0.00202533
0.00205511
0.00205517
0.00202767
0.00202765
0.00205512
0.00202766
0.0020277
0.00205716
0.00202531
0.00205512
0.00202766
0.00202766
0.00202535
0.00202051
0.00198885
0.00201852
0.00201852
0.00199113
0.00199116
0.00202051
0.00198887
0.00201854
0.0020185
0.00199115
0.00199113
0.00201856
0.00199115
0.00199114
0.00202048
0.00198887
0.00201852
0.00199113
0.00199116
0.00198887
0.00198404
0.0019527
0.00198204
0.00198207
0.00195495
0.00195495
0.00198407
0.0019527
0.00198205
0.00198205
0.00195495
0.00195496
0.00198203
0.00195494
0.00195493
0.00198407
0.00195272
0.00198207
0.00195498
0.00195496
0.00195269
0.00194795
0.00191693
0.00194597
0.00194597
0.00191914
0.00191914
0.00194794
0.00191693
0.00194597
0.00194598
0.00191914
0.00191914
0.00194595
0.00191914
0.00191912
0.00194796
0.00191691
0.00194597
0.00191914
0.00191913
0.00191693
0.00191222
0.00188161
0.00191025
0.00191025
0.00188378
0.00188378
0.00191222
0.00188161
0.00191024
0.00191024
0.00188377
0.00188377
0.00191024
0.00188379
0.0018838
0.0019122
0.00188161
0.00191024
0.00188378
0.00188379
0.00188163
0.00187695
0.00184674
0.00187501
0.00187501
0.00184885
0.00184884
0.00187695
0.00184674
0.00187501
0.00187501
0.00184885
0.00184884
0.00187503
0.00184884
0.00184886
0.00187695
0.00184673
0.00187502
0.00184885
0.00184885
0.00184674
0.00184215
0.00181254
0.00184019
0.00184019
0.00181458
0.00181457
0.00184214
0.00181254
0.00184019
0.00184018
0.00181458
0.00181457
0.0018402
0.00181459
0.00181459
0.00184213
0.00181252
0.00184019
0.00181456
0.00181459
0.00181254
0.00180802
0.00177842
0.00180613
0.00180612
0.00178059
0.00178058
0.00180802
0.00177843
0.00180613
0.00180612
0.00178059
0.00178059
0.00180614
0.0017806
0.00178059
0.001808
0.00177842
0.00180614
0.00178057
0.00178059
0.00177842
0.00177381
0.00174339
0.00177195
0.00177194
0.00174556
0.00174556
0.00177381
0.00174339
0.00177195
0.00177195
0.00174556
0.00174556
0.00177195
0.00174556
0.00174556
0.00177381
0.00174339
0.00177194
0.00174555
0.00174555
0.00174338
0.00173862
0.00170719
0.00173661
0.00173661
0.0017093
0.00170931
0.00173863
0.00170719
0.0017366
0.00173661
0.0017093
0.00170931
0.0017366
0.0017093
0.0017093
0.00173863
0.0017072
0.0017366
0.00170931
0.0017093
0.00170719
0.00170226
0.00167037
0.00170008
0.00170008
0.00167235
0.00167235
0.00170226
0.00167037
0.00170007
0.00170008
0.00167235
0.00167235
0.00170007
0.00167234
0.00167234
0.00170227
0.00167038
0.00170008
0.00167236
0.00167235
0.00167037
0.00166548
0.00163433
0.0016632
0.0016632
0.00163625
0.00163625
0.00166548
0.00163433
0.0016632
0.00166321
0.00163625
0.00163625
0.0016632
0.00163625
0.00163624
0.00166549
0.00163433
0.0016632
0.00163625
0.00163625
0.00163433
0.00162963
0.00159964
0.00162745
0.00162745
0.00160162
0.00160162
0.00162963
0.00159964
0.00162746
0.00162746
0.00160162
0.00160162
0.00162745
0.00160162
0.00160162
0.00162963
0.00159964
0.00162745
0.00160162
0.00160162
0.00159964
0.00159512
0.00156657
0.00159316
0.00159317
0.00156853
0.00156853
0.00159512
0.00156657
0.00159317
0.00159316
0.00156853
0.00156853
0.00159316
0.00156853
0.00156853
0.00159512
0.00156657
0.00159316
0.00156853
0.00156853
0.00156657
0.00156225
0.00153447
0.00156049
0.00156049
0.00153655
0.00153655
0.00156225
0.00153447
0.00156049
0.00156049
0.00153655
0.00153655
0.00156049
0.00153655
0.00153654
0.00156225
0.00153447
0.00156049
0.00153655
0.00153655
0.00153447
0.00153018
0.00150235
0.00152857
0.00152857
0.00150449
0.00150449
0.00153018
0.00150235
0.00152857
0.00152857
0.00150449
0.00150449
0.00152857
0.00150449
0.00150449
0.00153018
0.00150235
0.00152857
0.00150449
0.00150449
0.00150235
0.00149798
0.0014696
0.00149637
0.00149637
0.00147171
0.00147171
0.00149799
0.0014696
0.00149637
0.00149637
0.00147171
0.00147171
0.00149637
0.00147171
0.00147171
0.00149798
0.0014696
0.00149637
0.00147171
0.00147171
0.0014696
0.00146511
0.00143587
0.00146336
0.00146336
0.00143794
0.00143794
0.00146511
0.00143587
0.00146336
0.00146336
0.00143794
0.00143794
0.00146336
0.00143794
0.00143794
0.00146511
0.00143587
0.00146336
0.00143794
0.00143794
0.00143587
0.00143123
0.00140121
0.00142935
0.00142935
0.00140326
0.00140326
0.00143123
0.00140121
0.00142935
0.00142935
0.00140326
0.00140326
0.00142935
0.00140326
0.00140326
0.00143123
0.00140121
0.00142935
0.00140326
0.00140326
0.00140121
0.00139647
0.00136591
0.00139448
0.00139448
0.00136796
0.00136796
0.00139647
0.00136591
0.00139448
0.00139448
0.00136796
0.00136796
0.00139448
0.00136796
0.00136796
0.00139647
0.00136591
0.00139448
0.00136796
0.00136796
0.00136591
0.00136111
0.00133028
0.00135908
0.00135908
0.00133233
0.00133233
0.00136111
0.00133028
0.00135908
0.00135908
0.00133233
0.00133233
0.00135908
0.00133233
0.00133233
0.00136111
0.00133028
0.00135908
0.00133233
0.00133233
0.00133028
0.00132545
0.00129449
0.00132339
0.00132339
0.00129654
0.00129654
0.00132545
0.00129449
0.00132339
0.00132339
0.00129654
0.00129654
0.00132339
0.00129654
0.00129654
0.00132545
0.00129449
0.00132339
0.00129654
0.00129654
0.00129449
0.00128965
0.00125866
0.00128759
0.00128759
0.00126072
0.00126072
0.00128965
0.00125866
0.00128759
0.00128759
0.00126072
0.00126072
0.00128759
0.00126072
0.00126072
0.00128965
0.00125866
0.00128759
0.00126072
0.00126072
0.00125866
0.00125383
0.00122283
0.00125176
0.00125176
0.00122488
0.00122488
0.00125383
0.00122283
0.00125176
0.00125176
0.00122488
0.00122488
0.00125176
0.00122488
0.00122488
0.00125383
0.00122283
0.00125176
0.00122488
0.00122488
0.00122283
0.00121799
0.00118698
0.00121592
0.00121592
0.00118904
0.00118904
0.00121799
0.00118698
0.00121592
0.00121592
0.00118904
0.00118904
0.00121592
0.00118904
0.00118904
0.00121799
0.00118698
0.00121592
0.00118904
0.00118904
0.00118698
0.00118214
0.00115114
0.00118008
0.00118008
0.0011532
0.0011532
0.00118214
0.00115114
0.00118008
0.00118008
0.0011532
0.0011532
0.00118008
0.0011532
0.0011532
0.00118214
0.00115114
0.00118008
0.0011532
0.0011532
0.00115114
0.0011463
0.0011153
0.00114424
0.00114424
0.00111736
0.00111736
0.0011463
0.0011153
0.00114424
0.00114424
0.00111736
0.00111736
0.00114424
0.00111736
0.00111736
0.0011463
0.0011153
0.00114424
0.00111736
0.00111736
0.0011153
0.00111046
0.00107946
0.00110839
0.00110839
0.00108152
0.00108152
0.00111046
0.00107946
0.00110839
0.00110839
0.00108152
0.00108152
0.00110839
0.00108152
0.00108152
0.00111046
0.00107946
0.00110839
0.00108152
0.00108152
0.00107946
0.00107462
0.00104361
0.00107256
0.00107256
0.00104567
0.00104567
0.00107462
0.00104361
0.00107256
0.00107256
0.00104567
0.00104567
0.00107256
0.00104567
0.00104567
0.00107462
0.00104361
0.00107256
0.00104567
0.00104567
0.00104361
0.00103877
0.00100777
0.00103671
0.00103671
0.00100983
0.00100983
0.00103877
0.00100777
0.00103671
0.00103671
0.00100983
0.00100983
0.00103671
0.00100983
0.00100983
0.00103877
0.00100777
0.00103671
0.00100983
0.00100983
0.00100777
0.00100293
0.000971926
0.00100086
0.00100086
0.000973982
0.000973982
0.00100293
0.000971926
0.00100086
0.00100086
0.000973982
0.000973982
0.00100086
0.000973982
0.000973982
0.00100293
0.000971926
0.00100086
0.000973982
0.000973982
0.000971926
0.000967085
0.00093608
0.000965021
0.000965021
0.000938135
0.000938135
0.000967085
0.00093608
0.00096502
0.00096502
0.000938135
0.000938135
0.000965021
0.000938135
0.000938135
0.000967085
0.000936079
0.00096502
0.000938134
0.000938135
0.000936079
0.000931239
0.000900238
0.000929174
0.000929174
0.000902292
0.000902292
0.000931238
0.000900238
0.000929175
0.000929174
0.000902291
0.000902291
0.000929174
0.000902292
0.000902292
0.000931238
0.000900237
0.000929174
0.000902292
0.000902292
0.000900237
0.000895397
0.000864392
0.00089333
0.00089333
0.000866447
0.000866447
0.000895396
0.000864393
0.00089333
0.00089333
0.000866447
0.000866448
0.00089333
0.000866448
0.000866448
0.000895396
0.000864393
0.00089333
0.000866448
0.000866448
0.000864393
0.000859552
0.000828547
0.000857488
0.000857488
0.000830602
0.000830602
0.000859553
0.000828547
0.000857487
0.000857488
0.000830603
0.000830602
0.000857488
0.000830602
0.000830602
0.000859553
0.000828547
0.000857489
0.000830602
0.000830602
0.000828547
0.000823706
0.000792706
0.000821642
0.000821642
0.000794761
0.00079476
0.000823706
0.000792705
0.000821643
0.000821643
0.00079476
0.00079476
0.000821642
0.000794761
0.000794761
0.000823707
0.000792705
0.000821642
0.000794761
0.000794761
0.000792705
0.000787864
0.000756864
0.000785798
0.000785798
0.000758918
0.000758919
0.000787862
0.000756864
0.000785799
0.000785798
0.000758917
0.000758918
0.000785798
0.000758919
0.00075892
0.000787863
0.000756864
0.000785798
0.000758919
0.000758919
0.000756864
0.000752023
0.000721019
0.000749957
0.000749957
0.000723074
0.000723075
0.000752022
0.000721021
0.000749956
0.000749956
0.000723074
0.000723075
0.000749959
0.000723073
0.000723072
0.000752022
0.00072102
0.000749959
0.000723073
0.000723072
0.000721019
0.000716179
0.000685176
0.000714114
0.000714115
0.000687232
0.000687231
0.00071618
0.000685176
0.000714113
0.000714114
0.000687232
0.000687232
0.000714114
0.000687231
0.000687232
0.00071618
0.000685177
0.000714113
0.000687232
0.000687232
0.000685176
0.000680335
0.000649333
0.000678272
0.000678272
0.000651389
0.000651389
0.000680336
0.000649334
0.000678271
0.000678272
0.000651389
0.000651388
0.000678271
0.00065139
0.00065139
0.000680337
0.000649333
0.000678271
0.00065139
0.00065139
0.000649333
0.000644492
0.000613493
0.000642429
0.000642429
0.000615547
0.000615547
0.000644493
0.000613493
0.000642429
0.000642429
0.000615547
0.000615546
0.000642429
0.000615547
0.000615547
0.000644494
0.000613491
0.000642429
0.000615546
0.000615547
0.000613494
0.000608652
0.00057765
0.000606587
0.000606587
0.000579705
0.000579705
0.000608652
0.00057765
0.000606586
0.000606586
0.000579705
0.000579705
0.000606588
0.000579705
0.000579704
0.000608652
0.000577649
0.000606588
0.000579703
0.000579703
0.000577649
0.00057281
0.000541809
0.000570744
0.000570743
0.000543865
0.000543865
0.000572808
0.000541811
0.000570745
0.000570744
0.000543864
0.000543865
0.000570744
0.000543865
0.000543865
0.000572808
0.00054181
0.000570744
0.000543865
0.000543864
0.000541808
0.000536968
0.000505967
0.000534903
0.000534904
0.000508022
0.000508022
0.000536969
0.000505967
0.000534904
0.000534904
0.000508021
0.000508022
0.000534902
0.000508021
0.000508023
0.000536969
0.000505968
0.000534902
0.000508023
0.000508024
0.000505969
0.000501128
0.000470123
0.000499063
0.000499063
0.000472179
0.00047218
0.000501127
0.000470124
0.000499063
0.000499064
0.000472179
0.000472179
0.000499064
0.000472179
0.000472178
0.000501128
0.000470123
0.000499064
0.000472179
0.000472179
0.000470125
0.000465283
0.000434285
0.00046322
0.00046322
0.000436339
0.000436339
0.000465283
0.000434286
0.00046322
0.00046322
0.000436339
0.000436339
0.00046322
0.000436341
0.000436339
0.000465283
0.000434285
0.000463221
0.000436339
0.000436337
0.000434282
0.000429443
0.000398445
0.000427379
0.000427379
0.000400498
0.000400498
0.000429443
0.000398445
0.000427379
0.000427379
0.000400497
0.000400497
0.000427378
0.000400498
0.000400499
0.000429444
0.000398443
0.000427377
0.000400497
0.000400499
0.000398444
0.000393604
0.000362602
0.000391538
0.000391538
0.000364656
0.000364656
0.000393604
0.000362602
0.000391538
0.000391538
0.000364656
0.000364657
0.00039154
0.000364654
0.000364656
0.000393603
0.000362601
0.000391537
0.000364657
0.000364658
0.000362603
0.000357761
0.00032676
0.000355698
0.000355697
0.000328816
0.000328816
0.000357761
0.00032676
0.000355697
0.000355696
0.000328815
0.000328816
0.000355698
0.000328815
0.000328815
0.00035776
0.000326761
0.000355698
0.000328816
0.000328815
0.000326761
0.000321918
0.00029092
0.000319856
0.000319856
0.000292975
0.000292975
0.000321917
0.000290921
0.000319857
0.000319857
0.000292973
0.000292973
0.000319856
0.000292975
0.000292975
0.000321919
0.00029092
0.000319858
0.000292974
0.000292972
0.000290919
0.000286076
0.000255081
0.000284016
0.000284016
0.000257132
0.000257132
0.000286076
0.000255081
0.000284015
0.000284015
0.000257133
0.000257133
0.000284016
0.000257134
0.000257133
0.000286077
0.000255081
0.000284014
0.000257133
0.000257134
0.00025508
0.000250235
0.000219241
0.000248175
0.000248175
0.000221292
0.000221291
0.000250236
0.000219241
0.000248174
0.000248175
0.000221292
0.000221291
0.000248176
0.00022129
0.000221291
0.000250237
0.000219239
0.000248174
0.00022129
0.000221292
0.00021924
0.000214393
0.000183399
0.000212334
0.000212334
0.000185449
0.000185449
0.000214393
0.000183399
0.000212335
0.000212335
0.000185448
0.000185448
0.000212334
0.000185448
0.00018545
0.000214393
0.000183397
0.000212335
0.000185447
0.000185449
0.0001834
0.000178546
0.000147558
0.000176494
0.000176493
0.000149605
0.000149605
0.000178545
0.000147559
0.000176494
0.000176493
0.000149604
0.000149605
0.000176493
0.000149607
0.000149607
0.000178544
0.000147559
0.000176493
0.000149606
0.000149606
0.000147561
0.000142694
0.000111717
0.000140651
0.000140651
0.000113757
0.000113758
0.000142693
0.000111718
0.00014065
0.00014065
0.000113757
0.000113758
0.000140652
0.000113758
0.000113757
0.000142693
0.000111719
0.000140651
0.000113759
0.000113758
0.000111718
0.000106831
7.58693e-05
0.000104804
0.000104805
7.79049e-05
7.79055e-05
0.00010683
7.58723e-05
0.000104804
0.000104805
7.79043e-05
7.79035e-05
0.000104806
7.7906e-05
7.79037e-05
0.000106832
7.587e-05
0.000104805
7.79042e-05
7.79044e-05
7.58692e-05
7.09469e-05
4.00832e-05
6.89541e-05
6.8955e-05
4.21206e-05
4.21206e-05
7.09478e-05
4.00848e-05
6.89531e-05
6.89532e-05
4.21192e-05
4.2117e-05
6.89535e-05
4.21193e-05
4.21173e-05
7.0948e-05
4.00807e-05
6.89536e-05
4.21164e-05
4.21159e-05
4.00801e-05
3.52006e-05
8.06825e-06
3.33759e-05
3.33765e-05
1.09656e-05
1.09646e-05
3.52017e-05
8.06785e-06
3.33749e-05
3.33722e-05
1.09663e-05
1.09597e-05
3.33719e-05
1.09647e-05
1.09581e-05
3.51984e-05
8.06426e-06
3.33713e-05
1.09625e-05
1.09627e-05
8.06279e-06
4.94903e-06
6.39816e-06
6.39703e-06
4.94951e-06
6.39728e-06
6.39337e-06
5.79858e-06
5.79767e-06
5.79683e-06
6.39255e-06
4.94716e-06
6.39545e-06
0.00354485
0.00354767
0.00354642
0.00354644
0.00357258
0.00354802
0.00357699
0.0035479
0.00357253
0.00354797
0.00354783
0.00357682
0.00355851
0.00357999
0.00358001
0.00351674
0.00353061
0.00353446
0.003509
0.00350738
0.00351266
0.00351662
0.00353057
0.00353441
0.00350894
0.00353286
0.00353286
0.0035329
0.00350604
0.00350597
0.00350598
0.00350607
0.00351638
0.00352862
0.00353342
0.00352395
0.00353565
0.00351354
0.00352423
0.00350732
0.00351251
0.00351638
0.00353342
0.00352841
0.00352399
0.0035356
0.00352423
0.00351355
0.00353437
0.00353439
0.00352129
0.00351353
0.00351355
0.0034893
0.00350338
0.00350299
0.00348742
0.00350079
0.00348635
0.00348946
0.00350335
0.003503
0.00348746
0.00349689
0.00349694
0.00349703
0.00346927
0.00346914
0.00346923
0.00346932
0.0034871
0.00350216
0.00349561
0.00348666
0.00350049
0.0034876
0.00348649
0.00350054
0.00348655
0.0034871
0.00349561
0.00350196
0.00348653
0.00350048
0.00348643
0.00348763
0.00350367
0.00350364
0.00348492
0.00348807
0.00348809
0.00344703
0.00346188
0.00346259
0.00344579
0.0034607
0.00344493
0.00344705
0.00346189
0.00346262
0.00344579
0.00345916
0.00345926
0.00345934
0.00342656
0.00342648
0.00342655
0.00342662
0.00344583
0.00346154
0.00345747
0.00344716
0.00346047
0.0034463
0.00344706
0.00346072
0.00344496
0.00344585
0.00345748
0.0034614
0.00344712
0.00346048
0.00344703
0.00344635
0.00346205
0.00346208
0.00344437
0.00344621
0.00344618
0.00340055
0.00341705
0.00341843
0.00339913
0.00341636
0.00339855
0.00340054
0.00341706
0.00341841
0.00339913
0.00341477
0.00341486
0.00341491
0.00337861
0.00337852
0.0033786
0.00337863
0.00339957
0.00341707
0.00341328
0.00340151
0.00341639
0.00339982
0.0034014
0.00341646
0.00339856
0.00339955
0.0034133
0.00341698
0.00340135
0.00341641
0.00340139
0.00339988
0.00341722
0.0034172
0.00339815
0.00339922
0.00339924
0.00335143
0.00336854
0.00336979
0.00335021
0.00336803
0.00334987
0.00335139
0.00336852
0.00336986
0.0033502
0.00336634
0.00336638
0.00336643
0.00332994
0.0033299
0.00332994
0.00332997
0.00335087
0.00336854
0.0033649
0.00335263
0.00336817
0.00335083
0.00335275
0.00336807
0.00334995
0.00335092
0.00336495
0.00336862
0.00335285
0.0033682
0.0033528
0.00335088
0.00336857
0.00336856
0.00334954
0.00335032
0.00335033
0.00330254
0.00331978
0.00332079
0.00330174
0.0033195
0.00330146
0.00330258
0.00331975
0.00332082
0.00330174
0.00331786
0.00331788
0.00331791
0.00328186
0.00328189
0.00328187
0.0032819
0.00330245
0.00331942