/*--------------------------------*- C++ -*----------------------------------*\
| =========                 |                                                 |
| \\      /  F ield         | OpenFOAM: The Open Source CFD Toolbox           |
|  \\    /   O peration     | Version:  v2012                                 |
|   \\  /    A nd           | Website:  www.openfoam.com                      |
|    \\/     M anipulation  |                                                 |
\*---------------------------------------------------------------------------*/
FoamFile
{
    version     2.0;
    format      ascii;
    class       volScalarField;
    location    "750";
    object      epsilon;
}
// * * * * * * * * * * * * * * * * * * * * * * * * * * * * * * * * * * * * * //

dimensions      [0 2 -3 0 0 0 0];


internalField   nonuniform List<scalar> 
85864
(
3.2685e-07
8.74421e-07
8.74538e-07
1.15962e-06
3.43037e-07
8.97959e-07
8.98059e-07
1.17903e-06
3.59445e-07
9.20451e-07
9.20568e-07
1.19749e-06
3.76022e-07
9.41949e-07
9.42052e-07
1.21505e-06
3.92639e-07
9.62405e-07
9.62514e-07
1.23171e-06
4.09305e-07
9.81914e-07
9.82009e-07
1.24758e-06
4.25759e-07
1.0002e-06
1.0003e-06
1.2624e-06
4.42156e-07
1.01778e-06
1.01789e-06
1.27673e-06
4.58415e-07
1.03431e-06
1.03439e-06
1.29021e-06
4.74147e-07
1.04971e-06
1.04983e-06
1.30271e-06
4.89578e-07
1.06432e-06
1.06441e-06
1.3147e-06
5.0474e-07
1.07807e-06
1.07811e-06
1.32603e-06
5.19502e-07
1.09091e-06
1.09107e-06
1.33662e-06
5.33163e-07
1.10239e-06
1.10248e-06
1.34608e-06
5.47137e-07
1.11422e-06
1.11413e-06
1.35596e-06
5.6016e-07
1.12389e-06
1.12448e-06
1.36452e-06
5.72426e-07
1.13374e-06
1.13311e-06
1.37198e-06
5.83799e-07
1.14152e-06
1.14199e-06
1.37887e-06
5.94458e-07
1.14904e-06
1.14933e-06
1.38531e-06
6.06887e-07
1.15922e-06
1.15916e-06
1.39522e-06
6.18021e-07
1.16631e-06
1.16657e-06
1.40153e-06
6.22982e-07
1.16739e-06
1.16648e-06
1.39861e-06
6.31612e-07
1.17205e-06
1.17359e-06
1.40866e-06
6.45063e-07
1.18449e-06
1.18925e-06
1.42444e-06
6.53259e-07
1.19472e-06
1.18963e-06
1.42178e-06
6.43817e-07
1.16552e-06
1.15668e-06
1.38165e-06
6.35996e-07
1.14127e-06
1.15477e-06
1.37879e-06
6.90891e-07
1.24106e-06
1.2565e-06
1.50541e-06
7.35358e-07
1.30301e-06
1.28364e-06
1.54792e-06
6.74891e-07
1.17602e-06
1.16225e-06
1.39123e-06
6.08474e-07
1.08662e-06
1.10683e-06
1.31095e-06
6.40348e-07
1.15328e-06
1.15963e-06
1.38812e-06
7.01699e-07
1.20625e-06
1.19442e-06
1.42763e-06
7.01078e-07
1.20103e-06
1.21187e-06
1.44884e-06
7.03807e-07
1.21974e-06
1.23762e-06
1.47887e-06
7.03341e-07
1.2203e-06
1.20151e-06
1.44128e-06
6.87314e-07
1.20102e-06
1.15424e-06
1.41825e-06
7.0139e-07
1.21931e-06
1.19743e-06
1.47886e-06
7.13921e-07
1.21571e-06
1.24696e-06
1.46646e-06
6.7491e-07
1.13857e-06
1.19683e-06
1.3555e-06
6.48797e-07
1.12004e-06
1.12476e-06
1.33539e-06
6.78721e-07
1.18892e-06
1.1343e-06
1.43155e-06
7.22063e-07
1.22451e-06
1.19571e-06
1.47538e-06
7.13548e-07
1.19292e-06
1.20339e-06
1.43752e-06
6.7163e-07
1.14021e-06
1.1683e-06
1.37924e-06
6.56216e-07
1.13366e-06
1.14912e-06
1.36646e-06
6.69344e-07
1.1648e-06
1.157e-06
1.3973e-06
6.74675e-07
1.12466e-06
1.11485e-06
1.37936e-06
1.15954e-06
1.17346e-06
8.74579e-07
8.74607e-07
8.92319e-07
8.92358e-07
1.15946e-06
1.17338e-06
8.74463e-07
8.74668e-07
8.92194e-07
8.92401e-07
8.74672e-07
8.92179e-07
8.92416e-07
1.15958e-06
1.1735e-06
8.74546e-07
8.9228e-07
8.92291e-07
1.17354e-06
1.17895e-06
1.19211e-06
8.98099e-07
8.98137e-07
9.15065e-07
9.15085e-07
1.17888e-06
1.19202e-06
8.97981e-07
8.98178e-07
9.14948e-07
9.15148e-07
8.98197e-07
9.14913e-07
9.15158e-07
1.17898e-06
1.19215e-06
8.98074e-07
9.15028e-07
9.15036e-07
1.19219e-06
1.19741e-06
1.20987e-06
9.20605e-07
9.20622e-07
9.36825e-07
9.36848e-07
1.19732e-06
1.20979e-06
9.20492e-07
9.20685e-07
9.36704e-07
9.369e-07
9.20698e-07
9.36679e-07
9.36918e-07
1.19744e-06
1.20991e-06
9.20577e-07
9.36793e-07
9.36802e-07
1.20995e-06
1.21497e-06
1.22671e-06
9.42088e-07
9.42117e-07
9.57503e-07
9.57526e-07
1.21489e-06
1.22663e-06
9.41968e-07
9.42156e-07
9.57386e-07
9.5758e-07
9.42183e-07
9.57365e-07
9.57586e-07
1.215e-06
1.22674e-06
9.42066e-07
9.57473e-07
9.57473e-07
1.22678e-06
1.23164e-06
1.24278e-06
9.62555e-07
9.62566e-07
9.77282e-07
9.77312e-07
1.23156e-06
1.2427e-06
9.62445e-07
9.62625e-07
9.77166e-07
9.77353e-07
9.62634e-07
9.77158e-07
9.77372e-07
1.23167e-06
1.24281e-06
9.62521e-07
9.77252e-07
9.77256e-07
1.24285e-06
1.2475e-06
1.25777e-06
9.82026e-07
9.82065e-07
9.95836e-07
9.95857e-07
1.24743e-06
1.2577e-06
9.81917e-07
9.82104e-07
9.95717e-07
9.95887e-07
9.82132e-07
9.95704e-07
9.9592e-07
1.24753e-06
1.25781e-06
9.82016e-07
9.95802e-07
9.95809e-07
1.25786e-06
1.26231e-06
1.27219e-06
1.00033e-06
1.00035e-06
1.01357e-06
1.01359e-06
1.26225e-06
1.27212e-06
1.00021e-06
1.00039e-06
1.01347e-06
1.01368e-06
1.00042e-06
1.01346e-06
1.01368e-06
1.26235e-06
1.27225e-06
1.00031e-06
1.01359e-06
1.01359e-06
1.27229e-06
1.27664e-06
1.28595e-06
1.0179e-06
1.01792e-06
1.03047e-06
1.03046e-06
1.27657e-06
1.28585e-06
1.0178e-06
1.01799e-06
1.03034e-06
1.03045e-06
1.018e-06
1.03031e-06
1.03052e-06
1.27669e-06
1.28591e-06
1.0179e-06
1.03036e-06
1.0304e-06
1.28599e-06
1.29017e-06
1.29858e-06
1.03447e-06
1.03445e-06
1.04605e-06
1.04608e-06
1.29007e-06
1.2985e-06
1.03434e-06
1.03447e-06
1.04593e-06
1.04613e-06
1.03453e-06
1.04593e-06
1.04612e-06
1.29013e-06
1.29864e-06
1.03442e-06
1.04605e-06
1.04601e-06
1.29865e-06
1.30263e-06
1.31061e-06
1.04981e-06
1.04985e-06
1.06079e-06
1.06085e-06
1.30257e-06
1.31059e-06
1.0497e-06
1.04991e-06
1.06072e-06
1.06092e-06
1.04991e-06
1.06073e-06
1.06094e-06
1.30271e-06
1.3107e-06
1.04979e-06
1.06085e-06
1.06085e-06
1.31075e-06
1.31457e-06
1.32216e-06
1.06439e-06
1.06444e-06
1.07485e-06
1.07487e-06
1.31455e-06
1.3221e-06
1.06431e-06
1.06448e-06
1.07471e-06
1.07482e-06
1.06452e-06
1.07474e-06
1.07491e-06
1.31463e-06
1.32212e-06
1.06443e-06
1.07476e-06
1.0748e-06
1.32223e-06
1.32599e-06
1.33298e-06
1.07819e-06
1.07819e-06
1.08801e-06
1.08794e-06
1.32592e-06
1.3328e-06
1.07807e-06
1.07818e-06
1.0879e-06
1.08805e-06
1.07826e-06
1.08779e-06
1.08803e-06
1.32594e-06
1.33297e-06
1.07815e-06
1.08794e-06
1.08792e-06
1.33299e-06
1.33662e-06
1.34249e-06
1.09113e-06
1.09108e-06
1.09958e-06
1.09971e-06
1.33644e-06
1.34253e-06
1.09102e-06
1.09118e-06
1.0995e-06
1.09975e-06
1.09113e-06
1.09961e-06
1.09974e-06
1.33662e-06
1.34264e-06
1.09102e-06
1.09967e-06
1.09964e-06
1.34262e-06
1.34589e-06
1.35221e-06
1.10232e-06
1.10246e-06
1.1113e-06
1.11138e-06
1.34598e-06
1.35223e-06
1.10226e-06
1.10252e-06
1.11117e-06
1.11131e-06
1.10258e-06
1.11126e-06
1.11142e-06
1.34606e-06
1.35224e-06
1.1025e-06
1.11129e-06
1.11133e-06
1.3524e-06
1.35587e-06
1.36144e-06
1.11434e-06
1.1144e-06
1.122e-06
1.12182e-06
1.35584e-06
1.36115e-06
1.11414e-06
1.11417e-06
1.1219e-06
1.12201e-06
1.11429e-06
1.12165e-06
1.12201e-06
1.35581e-06
1.36135e-06
1.11416e-06
1.12198e-06
1.12198e-06
1.36137e-06
1.36452e-06
1.36888e-06
1.12422e-06
1.124e-06
1.13133e-06
1.13146e-06
1.36418e-06
1.3688e-06
1.12424e-06
1.12452e-06
1.13121e-06
1.13131e-06
1.12437e-06
1.13139e-06
1.13136e-06
1.36454e-06
1.36888e-06
1.1244e-06
1.13113e-06
1.13112e-06
1.36892e-06
1.37202e-06
1.37585e-06
1.13365e-06
1.13382e-06
1.13971e-06
1.1396e-06
1.37206e-06
1.37583e-06
1.13346e-06
1.13331e-06
1.13969e-06
1.13979e-06
1.13362e-06
1.13955e-06
1.13989e-06
1.37183e-06
1.3757e-06
1.1333e-06
1.13966e-06
1.13978e-06
1.37594e-06
1.37863e-06
1.38182e-06
1.14161e-06
1.1416e-06
1.14697e-06
1.14747e-06
1.37858e-06
1.38224e-06
1.14161e-06
1.14207e-06
1.14678e-06
1.14749e-06
1.14189e-06
1.1473e-06
1.14731e-06
1.37879e-06
1.38276e-06
1.14184e-06
1.14769e-06
1.1474e-06
1.38237e-06
1.38485e-06
1.39167e-06
1.14888e-06
1.14923e-06
1.15707e-06
1.15641e-06
1.38532e-06
1.39079e-06
1.14869e-06
1.1491e-06
1.15689e-06
1.15637e-06
1.14914e-06
1.15618e-06
1.15674e-06
1.38557e-06
1.39083e-06
1.14926e-06
1.15624e-06
1.15662e-06
1.39138e-06
1.39565e-06
1.39968e-06
1.16016e-06
1.15943e-06
1.16575e-06
1.16561e-06
1.39448e-06
1.39905e-06
1.15999e-06
1.15942e-06
1.16581e-06
1.16601e-06
1.15979e-06
1.16562e-06
1.16597e-06
1.39461e-06
1.39938e-06
1.15955e-06
1.16579e-06
1.16577e-06
1.39957e-06
1.40155e-06
1.39709e-06
1.16615e-06
1.16625e-06
1.16619e-06
1.16695e-06
1.40109e-06
1.3982e-06
1.16628e-06
1.16673e-06
1.16623e-06
1.16661e-06
1.1665e-06
1.16689e-06
1.16641e-06
1.40145e-06
1.39743e-06
1.16636e-06
1.16651e-06
1.16626e-06
1.39705e-06
1.39873e-06
1.40284e-06
1.16647e-06
1.16764e-06
1.17135e-06
1.17115e-06
1.40008e-06
1.40302e-06
1.16633e-06
1.16657e-06
1.17051e-06
1.16994e-06
1.1665e-06
1.17083e-06
1.17178e-06
1.39891e-06
1.40206e-06
1.1663e-06
1.17009e-06
1.17145e-06
1.40373e-06
1.40685e-06
1.41797e-06
1.17379e-06
1.17208e-06
1.18342e-06
1.1792e-06
1.40575e-06
1.41195e-06
1.17317e-06
1.17318e-06
1.18416e-06
1.18588e-06
1.17523e-06
1.17986e-06
1.18539e-06
1.40668e-06
1.4207e-06
1.17518e-06
1.18625e-06
1.18612e-06
1.42082e-06
1.42277e-06
1.42758e-06
1.18711e-06
1.18407e-06
1.19236e-06
1.19501e-06
1.41722e-06
1.43037e-06
1.18788e-06
1.18928e-06
1.19235e-06
1.19202e-06
1.18764e-06
1.19445e-06
1.18935e-06
1.42527e-06
1.4256e-06
1.18819e-06
1.1912e-06
1.18911e-06
1.42117e-06
1.42859e-06
1.3851e-06
1.19201e-06
1.19537e-06
1.17069e-06
1.1802e-06
1.43301e-06
1.402e-06
1.1918e-06
1.19076e-06
1.16914e-06
1.16592e-06
1.18845e-06
1.17951e-06
1.16918e-06
1.4262e-06
1.37962e-06
1.18762e-06
1.1653e-06
1.16729e-06
1.38331e-06
1.3814e-06
1.35463e-06
1.15864e-06
1.16564e-06
1.14338e-06
1.13984e-06
1.39689e-06
1.34682e-06
1.15773e-06
1.1564e-06
1.14475e-06
1.14847e-06
1.16059e-06
1.14099e-06
1.15144e-06
1.3771e-06
1.36324e-06
1.15975e-06
1.15009e-06
1.15321e-06
1.36973e-06
1.3617e-06
1.47562e-06
1.14536e-06
1.14007e-06
1.21845e-06
1.20214e-06
1.34861e-06
1.44605e-06
1.14726e-06
1.1528e-06
1.22129e-06
1.22834e-06
1.15398e-06
1.20235e-06
1.22098e-06
1.37379e-06
1.48679e-06
1.15684e-06
1.22923e-06
1.22525e-06
1.47918e-06
1.50805e-06
1.57175e-06
1.2533e-06
1.24153e-06
1.29884e-06
1.30455e-06
1.48426e-06
1.58296e-06
1.25429e-06
1.25686e-06
1.29597e-06
1.28875e-06
1.25033e-06
1.30308e-06
1.28638e-06
1.51399e-06
1.55677e-06
1.25215e-06
1.28655e-06
1.28321e-06
1.54956e-06
1.57169e-06
1.42025e-06
1.2971e-06
1.3045e-06
1.20789e-06
1.22161e-06
1.58618e-06
1.44712e-06
1.29408e-06
1.28596e-06
1.2058e-06
1.19981e-06
1.28421e-06
1.22115e-06
1.20242e-06
1.5544e-06
1.40429e-06
1.28062e-06
1.19843e-06
1.19857e-06
1.40853e-06
1.3971e-06
1.27393e-06
1.16434e-06
1.17559e-06
1.08749e-06
1.08801e-06
1.42168e-06
1.27495e-06
1.16324e-06
1.16251e-06
1.0896e-06
1.10498e-06
1.16582e-06
1.09085e-06
1.10733e-06
1.3855e-06
1.30146e-06
1.16319e-06
1.10779e-06
1.1091e-06
1.30864e-06
1.2741e-06
1.35475e-06
1.08466e-06
1.08364e-06
1.13116e-06
1.12454e-06
1.27384e-06
1.34304e-06
1.087e-06
1.10379e-06
1.13168e-06
1.14067e-06
1.10588e-06
1.12505e-06
1.13979e-06
1.30412e-06
1.37241e-06
1.10805e-06
1.14153e-06
1.14107e-06
1.37117e-06
1.38459e-06
1.45874e-06
1.16225e-06
1.15471e-06
1.21519e-06
1.20727e-06
1.3721e-06
1.44428e-06
1.16134e-06
1.16071e-06
1.21387e-06
1.19475e-06
1.15903e-06
1.20408e-06
1.19433e-06
1.39039e-06
1.42355e-06
1.15914e-06
1.19128e-06
1.19296e-06
1.42312e-06
1.46371e-06
1.45346e-06
1.21695e-06
1.20899e-06
1.20825e-06
1.20117e-06
1.44872e-06
1.43823e-06
1.21641e-06
1.19771e-06
1.21076e-06
1.20307e-06
1.19743e-06
1.20121e-06
1.20237e-06
1.42734e-06
1.43872e-06
1.19648e-06
1.20317e-06
1.20632e-06
1.44017e-06
1.45447e-06
1.45635e-06
1.20725e-06
1.20071e-06
1.21482e-06
1.21402e-06
1.43955e-06
1.45387e-06
1.20998e-06
1.20993e-06
1.21541e-06
1.23532e-06
1.20807e-06
1.21359e-06
1.22424e-06
1.44875e-06
1.49584e-06
1.21225e-06
1.2356e-06
1.22503e-06
1.47538e-06
1.45969e-06
1.44517e-06
1.21824e-06
1.2209e-06
1.21623e-06
1.2255e-06
1.46183e-06
1.46607e-06
1.21746e-06
1.23801e-06
1.21279e-06
1.22374e-06
1.22565e-06
1.22393e-06
1.21526e-06
1.50187e-06
1.46081e-06
1.22553e-06
1.22135e-06
1.20997e-06
1.44491e-06
1.44294e-06
1.41062e-06
1.20727e-06
1.22133e-06
1.18623e-06
1.20007e-06
1.46617e-06
1.43861e-06
1.20196e-06
1.20276e-06
1.17966e-06
1.15495e-06
1.20507e-06
1.20194e-06
1.1912e-06
1.45157e-06
1.35777e-06
1.19923e-06
1.15752e-06
1.18495e-06
1.41342e-06
1.41296e-06
1.45605e-06
1.18595e-06
1.19881e-06
1.21073e-06
1.2118e-06
1.43994e-06
1.45735e-06
1.17938e-06
1.15125e-06
1.2059e-06
1.17229e-06
1.192e-06
1.21299e-06
1.21884e-06
1.35714e-06
1.39473e-06
1.18582e-06
1.17436e-06
1.2153e-06
1.46798e-06
1.47047e-06
1.48231e-06
1.22316e-06
1.21939e-06
1.23313e-06
1.22401e-06
1.46509e-06
1.46068e-06
1.22021e-06
1.1967e-06
1.23463e-06
1.24608e-06
1.22699e-06
1.22227e-06
1.22856e-06
1.41939e-06
1.505e-06
1.22536e-06
1.24443e-06
1.23058e-06
1.47121e-06
1.47962e-06
1.37512e-06
1.22765e-06
1.21794e-06
1.16167e-06
1.15722e-06
1.45742e-06
1.36114e-06
1.23114e-06
1.24864e-06
1.17155e-06
1.22042e-06
1.21826e-06
1.1565e-06
1.15379e-06
1.51257e-06
1.47291e-06
1.22334e-06
1.22031e-06
1.16382e-06
1.36164e-06
1.36669e-06
1.31797e-06
1.13971e-06
1.13855e-06
1.11232e-06
1.11765e-06
1.35507e-06
1.32429e-06
1.1491e-06
1.19651e-06
1.11676e-06
1.13321e-06
1.13606e-06
1.11869e-06
1.11845e-06
1.46422e-06
1.35068e-06
1.14513e-06
1.13406e-06
1.12304e-06
1.32744e-06
1.32136e-06
1.38911e-06
1.11287e-06
1.1189e-06
1.15625e-06
1.16648e-06
1.33125e-06
1.41222e-06
1.1166e-06
1.12389e-06
1.15146e-06
1.12279e-06
1.1205e-06
1.16791e-06
1.17015e-06
1.34708e-06
1.33386e-06
1.12399e-06
1.12368e-06
1.1649e-06
1.41205e-06
1.41144e-06
1.47928e-06
1.17972e-06
1.18812e-06
1.22529e-06
1.22374e-06
1.43383e-06
1.48413e-06
1.17328e-06
1.13342e-06
1.22012e-06
1.18492e-06
1.19009e-06
1.22263e-06
1.21996e-06
1.34411e-06
1.41674e-06
1.18392e-06
1.18413e-06
1.21468e-06
1.47231e-06
1.48647e-06
1.4697e-06
1.22946e-06
1.22589e-06
1.21959e-06
1.21001e-06
1.48836e-06
1.44944e-06
1.22497e-06
1.19717e-06
1.21796e-06
1.20719e-06
1.22112e-06
1.20793e-06
1.20318e-06
1.43153e-06
1.45666e-06
1.21611e-06
1.20481e-06
1.20113e-06
1.44098e-06
1.46613e-06
1.38988e-06
1.20591e-06
1.19495e-06
1.15707e-06
1.14938e-06
1.44384e-06
1.36819e-06
1.20594e-06
1.20584e-06
1.16095e-06
1.17923e-06
1.1905e-06
1.14855e-06
1.15146e-06
1.45882e-06
1.42414e-06
1.19034e-06
1.17791e-06
1.15486e-06
1.38037e-06
1.38614e-06
1.34994e-06
1.14499e-06
1.14052e-06
1.12709e-06
1.13156e-06
1.36645e-06
1.35398e-06
1.14918e-06
1.16908e-06
1.13114e-06
1.14962e-06
1.14361e-06
1.13231e-06
1.1346e-06
1.42144e-06
1.38437e-06
1.1473e-06
1.15009e-06
1.1382e-06
1.36327e-06
1.35104e-06
1.36744e-06
1.12677e-06
1.1326e-06
1.13844e-06
1.15348e-06
1.35941e-06
1.39478e-06
1.13063e-06
1.14842e-06
1.13921e-06
1.15054e-06
1.13518e-06
1.15551e-06
1.1518e-06
1.38498e-06
1.38375e-06
1.13861e-06
1.15218e-06
1.1523e-06
1.38884e-06
1.377e-06
1.39218e-06
1.1485e-06
1.16297e-06
1.15215e-06
1.15629e-06
1.4042e-06
1.40495e-06
1.14778e-06
1.1547e-06
1.15e-06
1.14591e-06
1.16113e-06
1.15724e-06
1.15501e-06
1.38807e-06
1.38453e-06
1.16071e-06
1.14736e-06
1.15352e-06
1.39863e-06
1.37621e-06
1.12118e-06
1.12399e-06
1.38507e-06
1.1194e-06
1.11395e-06
6.76318e-07
6.69798e-07
6.7427e-07
1.12246e-06
1.36618e-06
1.12102e-06
4.09712e-06
9.16434e-06
4.09449e-06
9.17122e-06
1.84338e-05
1.8444e-05
4.09749e-06
9.16643e-06
4.0944e-06
9.17331e-06
3.26837e-07
3.26924e-07
3.26919e-07
3.38968e-07
3.38963e-07
3.39049e-07
3.39045e-07
2.11725e-06
3.47868e-06
5.68242e-07
8.80402e-07
2.11152e-06
3.4821e-06
5.74145e-07
1.84344e-05
1.84447e-05
2.11727e-06
5.6833e-07
3.47872e-06
8.80521e-07
2.11157e-06
5.74241e-07
3.4822e-06
5.46413e-06
5.46604e-06
1.16386e-06
5.46714e-06
5.46908e-06
4.10481e-06
9.18069e-06
4.10221e-06
9.18768e-06
1.84563e-05
1.84669e-05
4.1052e-06
9.18279e-06
4.10212e-06
9.18978e-06
3.43035e-07
3.43115e-07
3.43116e-07
3.55319e-07
3.55304e-07
3.55403e-07
3.55396e-07
2.13113e-06
3.48978e-06
5.91759e-07
9.03668e-07
2.1257e-06
3.49303e-06
5.97572e-07
1.84569e-05
1.84676e-05
2.13114e-06
5.91842e-07
3.4898e-06
9.03775e-07
2.12574e-06
5.97662e-07
3.49311e-06
5.47347e-06
5.47538e-06
1.18298e-06
5.47644e-06
5.47837e-06
4.11245e-06
9.1973e-06
4.10986e-06
9.20437e-06
1.84797e-05
1.84906e-05
4.11282e-06
9.19939e-06
4.10978e-06
9.20645e-06
3.59429e-07
3.59528e-07
3.59523e-07
3.71874e-07
3.71859e-07
3.7196e-07
3.71957e-07
2.1443e-06
3.50041e-06
6.14897e-07
9.25927e-07
2.13914e-06
3.50355e-06
6.20626e-07
1.84803e-05
1.84913e-05
2.14432e-06
6.1499e-07
3.50045e-06
9.26046e-07
2.13918e-06
6.20723e-07
3.50366e-06
5.48272e-06
5.48463e-06
1.20119e-06
5.48568e-06
5.48761e-06
4.11993e-06
9.21405e-06
4.11741e-06
9.22117e-06
1.85038e-05
1.85149e-05
4.12029e-06
9.21612e-06
4.1173e-06
9.22325e-06
3.7601e-07
3.76105e-07
3.76106e-07
3.88463e-07
3.8846e-07
3.88558e-07
3.88548e-07
2.15676e-06
3.51066e-06
6.37625e-07
9.47147e-07
2.15192e-06
3.51363e-06
6.4321e-07
1.85044e-05
1.85156e-05
2.15677e-06
6.37721e-07
3.51068e-06
9.47245e-07
2.15195e-06
6.433e-07
3.51371e-06
5.49181e-06
5.49373e-06
1.21847e-06
5.49469e-06
5.49663e-06
4.12739e-06
9.23103e-06
4.12485e-06
9.2382e-06
1.85286e-05
1.854e-05
4.12777e-06
9.23311e-06
4.12478e-06
9.24029e-06
3.92626e-07
3.9273e-07
3.92719e-07
4.05165e-07
4.05153e-07
4.05246e-07
4.05246e-07
2.16863e-06
3.52052e-06
6.59775e-07
9.67393e-07
2.164e-06
3.52344e-06
6.65248e-07
1.85293e-05
1.85407e-05
2.16863e-06
6.59874e-07
3.52054e-06
9.67496e-07
2.16402e-06
6.65341e-07
3.52351e-06
5.50089e-06
5.5028e-06
1.23493e-06
5.50381e-06
5.50575e-06
4.13444e-06
9.24783e-06
4.13214e-06
9.25484e-06
1.85536e-05
1.8565e-05
4.13479e-06
9.24993e-06
4.13203e-06
9.25694e-06
4.09308e-07
4.09403e-07
4.09397e-07
4.21662e-07
4.21648e-07
4.21744e-07
4.21752e-07
2.17974e-06
3.52998e-06
6.81396e-07
9.86581e-07
2.17549e-06
3.53258e-06
6.86661e-07
1.85542e-05
1.85657e-05
2.17974e-06
6.81486e-07
3.52997e-06
9.86677e-07
2.1755e-06
6.86754e-07
3.53266e-06
5.50969e-06
5.5116e-06
1.25048e-06
5.51233e-06
5.51426e-06
4.14146e-06
9.26469e-06
4.13903e-06
9.27205e-06
1.85792e-05
1.85912e-05
4.14187e-06
9.26674e-06
4.13895e-06
9.27407e-06
4.25744e-07
4.25838e-07
4.25842e-07
4.38053e-07
4.38047e-07
4.38183e-07
4.38171e-07
2.1902e-06
3.53875e-06
7.02116e-07
1.00466e-06
2.18611e-06
3.54142e-06
7.07203e-07
1.85799e-05
1.8592e-05
2.19024e-06
7.02215e-07
3.53881e-06
1.00478e-06
2.18616e-06
7.07313e-07
3.54156e-06
5.51813e-06
5.52006e-06
1.26512e-06
5.52102e-06
5.52297e-06
4.14867e-06
9.28212e-06
4.1463e-06
9.28935e-06
1.86057e-05
1.86175e-05
4.14901e-06
9.28413e-06
4.14622e-06
9.29131e-06
4.42149e-07
4.42282e-07
4.42265e-07
4.54403e-07
4.5438e-07
4.54442e-07
4.54476e-07
2.2004e-06
3.54775e-06
7.22289e-07
1.02205e-06
2.19649e-06
3.55031e-06
7.27237e-07
1.86065e-05
1.86183e-05
2.20037e-06
7.22408e-07
3.54776e-06
1.02211e-06
2.19652e-06
7.27321e-07
3.55031e-06
5.52709e-06
5.52902e-06
1.27927e-06
5.52981e-06
5.53174e-06
4.15522e-06
9.29899e-06
4.15315e-06
9.3059e-06
1.86317e-05
1.86435e-05
4.15553e-06
9.30095e-06
4.15296e-06
9.30788e-06
4.58384e-07
4.58463e-07
4.58492e-07
4.70236e-07
4.70232e-07
4.70347e-07
4.70317e-07
2.20966e-06
3.55602e-06
7.41688e-07
1.03823e-06
2.20617e-06
3.55827e-06
7.46341e-07
1.86325e-05
1.86446e-05
2.20965e-06
7.4176e-07
3.55597e-06
1.03834e-06
2.20613e-06
7.46442e-07
3.55836e-06
5.53533e-06
5.53724e-06
1.29242e-06
5.53784e-06
5.53978e-06
4.16159e-06
9.31549e-06
4.15945e-06
9.32268e-06
1.86583e-05
1.86704e-05
4.16205e-06
9.31759e-06
4.15941e-06
9.32478e-06
4.74151e-07
4.74257e-07
4.74226e-07
4.85739e-07
4.85744e-07
4.8589e-07
4.85887e-07
2.21842e-06
3.56378e-06
7.6003e-07
1.05343e-06
2.21504e-06
3.56606e-06
7.645e-07
1.86592e-05
1.86713e-05
2.21844e-06
7.60122e-07
3.56388e-06
1.05355e-06
2.21509e-06
7.64598e-07
3.56618e-06
5.54333e-06
5.54523e-06
1.30475e-06
5.54596e-06
5.54788e-06
4.16824e-06
9.33266e-06
4.16605e-06
9.33992e-06
1.86854e-05
1.86977e-05
4.16856e-06
9.33469e-06
4.166e-06
9.34185e-06
4.89589e-07
4.89727e-07
4.89714e-07
5.0101e-07
5.01017e-07
5.01058e-07
5.01102e-07
2.22688e-06
3.57152e-06
7.77618e-07
1.06786e-06
2.22367e-06
3.57374e-06
7.81905e-07
1.86861e-05
1.86984e-05
2.22687e-06
7.77738e-07
3.5715e-06
1.06791e-06
2.22371e-06
7.81997e-07
3.57374e-06
5.55154e-06
5.55352e-06
1.31658e-06
5.5541e-06
5.55611e-06
4.17467e-06
9.34978e-06
4.17264e-06
9.35678e-06
1.87126e-05
1.87245e-05
4.17498e-06
9.35168e-06
4.17244e-06
9.35873e-06
5.04736e-07
5.04788e-07
5.0483e-07
5.15835e-07
5.15761e-07
5.15912e-07
5.15911e-07
2.23478e-06
3.57902e-06
7.94361e-07
1.08135e-06
2.23182e-06
3.58102e-06
7.98383e-07
1.87134e-05
1.87257e-05
2.2347e-06
7.94413e-07
3.57892e-06
1.08143e-06
2.23182e-06
7.98453e-07
3.58107e-06
5.55963e-06
5.56153e-06
1.3277e-06
5.56219e-06
5.56408e-06
4.1803e-06
9.36591e-06
4.17866e-06
9.37235e-06
1.8739e-05
1.87509e-05
4.18074e-06
9.36798e-06
4.17864e-06
9.37443e-06
5.1942e-07
5.19573e-07
5.19538e-07
5.29863e-07
5.29905e-07
5.30004e-07
5.29963e-07
2.24192e-06
3.58577e-06
8.10188e-07
1.09392e-06
2.23929e-06
3.58753e-06
8.13958e-07
1.87401e-05
1.87518e-05
2.2419e-06
8.10306e-07
3.58594e-06
1.09405e-06
2.23935e-06
8.14057e-07
3.58771e-06
5.5671e-06
5.56899e-06
1.33795e-06
5.56905e-06
5.57098e-06
4.18593e-06
9.38162e-06
4.18386e-06
9.38923e-06
1.87661e-05
1.87792e-05
4.18627e-06
9.38367e-06
4.18385e-06
9.39119e-06
5.33242e-07
5.3335e-07
5.33339e-07
5.43563e-07
5.43596e-07
5.43729e-07
5.43771e-07
2.24865e-06
3.59195e-06
8.24631e-07
1.10525e-06
2.24603e-06
3.59397e-06
8.28157e-07
1.87666e-05
1.87797e-05
2.24863e-06
8.24719e-07
3.59189e-06
1.10537e-06
2.24608e-06
8.28298e-07
3.59397e-06
5.57393e-06
5.57589e-06
1.34737e-06
5.57682e-06
5.57884e-06
4.19307e-06
9.40009e-06
4.19101e-06
9.40678e-06
1.87951e-05
1.88062e-05
4.19304e-06
9.40186e-06
4.19068e-06
9.40855e-06
5.47187e-07
5.47188e-07
5.47212e-07
5.57092e-07
5.56981e-07
5.57072e-07
5.57145e-07
2.25578e-06
3.59953e-06
8.3902e-07
1.11696e-06
2.25327e-06
3.60126e-06
8.42465e-07
1.87956e-05
1.88074e-05
2.25581e-06
8.39016e-07
3.59943e-06
1.11683e-06
2.25339e-06
8.42378e-07
3.60134e-06
5.58297e-06
5.58498e-06
1.3572e-06
5.5851e-06
5.58709e-06
4.19681e-06
9.41427e-06
4.19567e-06
9.42032e-06
1.88189e-05
1.88309e-05
4.19764e-06
9.41646e-06
4.19585e-06
9.42272e-06
5.59931e-07
5.60331e-07
5.60306e-07
5.69393e-07
5.69472e-07
5.69543e-07
5.6942e-07
2.26091e-06
3.60431e-06
8.51649e-07
1.12628e-06
2.25906e-06
3.60574e-06
8.54657e-07
1.88208e-05
1.88322e-05
2.26105e-06
8.52079e-07
3.605e-06
1.12687e-06
2.25933e-06
8.55139e-07
3.60635e-06
5.58893e-06
5.59089e-06
1.36518e-06
5.5909e-06
5.59278e-06
4.20242e-06
9.42969e-06
4.2009e-06
9.43555e-06
1.88463e-05
1.88567e-05
4.20241e-06
9.43179e-06
4.20087e-06
9.43749e-06
5.72629e-07
5.72325e-07
5.72381e-07
5.81012e-07
5.80867e-07
5.80984e-07
5.81161e-07
2.26666e-06
3.61073e-06
8.63884e-07
1.13581e-06
2.26479e-06
3.61185e-06
8.66647e-07
1.88454e-05
1.88566e-05
2.26569e-06
8.6341e-07
3.60943e-06
1.13515e-06
2.26419e-06
8.6611e-07
3.61042e-06
5.59541e-06
5.5969e-06
1.37252e-06
5.59709e-06
5.59865e-06
4.20472e-06
9.44225e-06
4.20397e-06
9.4483e-06
1.88693e-05
1.88828e-05
4.20557e-06
9.44442e-06
4.20435e-06
9.45025e-06
5.83674e-07
5.8405e-07
5.8399e-07
5.91849e-07
5.92276e-07
5.92428e-07
5.92195e-07
2.26996e-06
3.6136e-06
8.74375e-07
1.14355e-06
2.26883e-06
3.61448e-06
8.77014e-07
1.8872e-05
1.88844e-05
2.27073e-06
8.74689e-07
3.61442e-06
1.14415e-06
2.26891e-06
8.77428e-07
3.61611e-06
5.60021e-06
5.60243e-06
1.37923e-06
5.60115e-06
5.60355e-06
4.21233e-06
9.46015e-06
4.20888e-06
9.47132e-06
1.89024e-05
1.8918e-05
4.21149e-06
9.46137e-06
4.20807e-06
9.47266e-06
5.94795e-07
5.94898e-07
5.94819e-07
6.03446e-07
6.02938e-07
6.03165e-07
6.03395e-07
2.27559e-06
3.61888e-06
8.84156e-07
1.15098e-06
2.27313e-06
3.62129e-06
8.86484e-07
1.89013e-05
1.89185e-05
2.27573e-06
8.84576e-07
3.619e-06
1.15122e-06
2.27377e-06
8.86913e-07
3.62115e-06
5.6057e-06
5.60789e-06
1.38612e-06
5.61138e-06
5.61352e-06
4.22311e-06
9.48557e-06
4.22053e-06
9.48955e-06
1.89361e-05
1.89438e-05
4.22371e-06
9.488e-06
4.22048e-06
9.49227e-06
6.06323e-07
6.06409e-07
6.06643e-07
6.15971e-07
6.15814e-07
6.15822e-07
6.15927e-07
2.285e-06
3.63017e-06
8.95652e-07
1.16203e-06
2.28177e-06
3.6325e-06
8.98969e-07
1.89378e-05
1.89455e-05
2.2848e-06
8.95493e-07
3.63017e-06
1.16193e-06
2.28179e-06
8.98635e-07
3.63262e-06
5.62405e-06
5.62583e-06
1.3968e-06
5.62657e-06
5.6282e-06
4.21828e-06
9.48784e-06
4.22217e-06
9.48672e-06
1.89463e-05
1.89513e-05
4.21961e-06
9.49036e-06
4.22318e-06
9.48857e-06
6.17923e-07
6.18222e-07
6.18161e-07
6.21791e-07
6.22363e-07
6.22403e-07
6.22028e-07
2.28395e-06
3.63205e-06
9.05448e-07
1.16657e-06
2.28594e-06
3.62858e-06
9.06332e-07
1.89468e-05
1.89487e-05
2.28382e-06
9.05582e-07
3.63285e-06
1.16675e-06
2.28591e-06
9.06618e-07
3.62889e-06
5.62339e-06
5.62467e-06
1.39888e-06
5.61629e-06
5.61728e-06
4.21974e-06
9.49322e-06
4.21619e-06
9.50437e-06
1.89695e-05
1.89859e-05
4.21669e-06
9.49307e-06
4.2155e-06
9.50336e-06
6.23918e-07
6.23351e-07
6.23087e-07
6.28935e-07
6.29356e-07
6.28364e-07
6.29132e-07
2.28286e-06
3.62844e-06
9.08508e-07
1.16837e-06
2.28173e-06
3.63078e-06
9.09859e-07
1.896e-05
1.89821e-05
2.2803e-06
9.08019e-07
3.62429e-06
1.16667e-06
2.28035e-06
9.08935e-07
3.62489e-06
5.61233e-06
5.6131e-06
1.39793e-06
5.61663e-06
5.6188e-06
4.22946e-06
9.52198e-06
4.22724e-06
9.53432e-06
1.90017e-05
1.902e-05
4.23129e-06
9.52341e-06
4.22507e-06
9.54003e-06
6.31102e-07
6.31226e-07
6.32398e-07
6.41309e-07
6.38325e-07
6.42793e-07
6.4284e-07
2.29245e-06
3.63577e-06
9.15699e-07
1.17362e-06
2.28893e-06
3.63795e-06
9.17938e-07
1.90217e-05
1.90484e-05
2.29555e-06
9.16057e-07
3.63886e-06
1.17781e-06
2.28878e-06
9.19948e-07
3.64732e-06
5.63845e-06
5.64191e-06
1.41297e-06
5.65079e-06
5.65483e-06
4.25041e-06
9.55677e-06
4.23941e-06
9.56851e-06
1.90585e-05
1.90775e-05
4.25817e-06
9.56573e-06
4.24771e-06
9.57369e-06
6.42402e-07
6.4655e-07
6.45773e-07
6.52833e-07
6.54308e-07
6.52076e-07
6.50758e-07
2.30665e-06
3.65197e-06
9.27581e-07
1.18912e-06
2.30045e-06
3.66176e-06
9.31236e-07
1.90688e-05
1.9066e-05
2.3105e-06
9.30644e-07
3.66398e-06
1.19095e-06
2.30674e-06
9.32456e-07
3.66911e-06
5.66849e-06
5.67303e-06
1.42454e-06
5.67153e-06
5.67396e-06
4.24596e-06
9.54966e-06
4.26278e-06
9.49575e-06
1.90495e-05
1.89855e-05
4.22578e-06
9.54059e-06
4.26034e-06
9.48374e-06
6.55767e-07
6.52083e-07
6.50941e-07
6.48858e-07
6.53282e-07
6.4604e-07
6.47858e-07
2.29911e-06
3.67355e-06
9.3591e-07
1.19396e-06
2.31113e-06
3.66023e-06
9.35556e-07
1.89804e-05
1.89099e-05
2.28029e-06
9.32739e-07
3.65722e-06
1.18442e-06
2.30273e-06
9.30777e-07
3.61865e-06
5.64442e-06
5.63776e-06
1.40777e-06
5.59995e-06
5.5939e-06
4.12033e-06
9.39766e-06
4.16141e-06
9.38463e-06
1.88498e-05
1.88454e-05
4.12074e-06
9.39823e-06
4.14947e-06
9.39268e-06
6.47473e-07
6.42315e-07
6.44587e-07
6.35546e-07
6.33424e-07
6.38241e-07
6.39788e-07
2.21954e-06
3.58004e-06
9.18777e-07
1.15277e-06
2.2473e-06
3.53582e-06
9.10463e-07
1.8861e-05
1.89271e-05
2.22129e-06
9.13896e-07
3.55612e-06
1.15135e-06
2.23615e-06
9.09916e-07
3.53834e-06
5.53016e-06
5.53323e-06
1.36777e-06
5.51477e-06
5.52391e-06
4.20789e-06
9.51103e-06
4.11925e-06
9.68298e-06
1.90442e-05
1.92957e-05
4.24444e-06
9.53676e-06
4.15215e-06
9.70239e-06
6.33157e-07
6.3954e-07
6.40381e-07
6.69257e-07
6.60184e-07
6.75284e-07
6.70926e-07
2.26483e-06
3.52279e-06
9.02969e-07
1.14633e-06
2.2143e-06
3.59085e-06
9.06797e-07
1.91972e-05
1.94085e-05
2.30495e-06
9.11126e-07
3.5868e-06
1.17104e-06
2.24604e-06
9.20739e-07
3.67168e-06
5.59076e-06
5.6061e-06
1.40731e-06
5.69831e-06
5.7057e-06
4.4942e-06
9.94681e-06
4.40422e-06
1.00078e-05
1.96416e-05
1.971e-05
4.48773e-06
9.93792e-06
4.41694e-06
9.98556e-06
6.8422e-07
6.93993e-07
6.89761e-07
7.33941e-07
7.39007e-07
7.26883e-07
7.26273e-07
2.46754e-06
3.78931e-06
9.78102e-07
1.27431e-06
2.40326e-06
3.88425e-06
1.00448e-06
1.95959e-05
1.95732e-05
2.46483e-06
9.86882e-07
3.82652e-06
1.27547e-06
2.42161e-06
1.0041e-06
3.87888e-06
5.8836e-06
5.87908e-06
1.53683e-06
5.94142e-06
5.93481e-06
4.40217e-06
9.85412e-06
4.52318e-06
9.61908e-06
1.94678e-05
1.91412e-05
4.35403e-06
9.82429e-06
4.48272e-06
9.59524e-06
7.41992e-07
7.27605e-07
7.2752e-07
7.007e-07
7.09361e-07
6.96506e-07
6.98328e-07
2.41874e-06
3.93148e-06
1.02784e-06
1.29494e-06
2.49003e-06
3.83811e-06
1.0218e-06
1.92171e-05
1.89465e-05
2.3693e-06
1.01449e-06
3.8495e-06
1.26896e-06
2.45282e-06
1.00606e-06
3.72769e-06
5.87583e-06
5.86595e-06
1.5024e-06
5.7158e-06
5.70737e-06
4.01799e-06
9.27662e-06
4.12939e-06
9.20266e-06
1.86855e-05
1.86219e-05
4.0186e-06
9.26852e-06
4.10717e-06
9.20668e-06
6.81511e-07
6.74918e-07
6.76393e-07
6.14679e-07
6.1422e-07
6.26432e-07
6.25965e-07
2.15573e-06
3.57523e-06
9.30079e-07
1.13521e-06
2.23554e-06
3.46134e-06
8.97433e-07
1.8701e-05
1.87239e-05
2.14966e-06
9.24284e-07
3.52068e-06
1.13345e-06
2.20747e-06
8.99007e-07
3.45628e-06
5.48292e-06
5.48207e-06
1.33138e-06
5.42545e-06
5.43103e-06
4.0619e-06
9.29687e-06
3.98233e-06
9.45158e-06
1.88032e-05
1.90215e-05
4.09543e-06
9.31923e-06
4.01372e-06
9.46773e-06
6.06191e-07
6.21191e-07
6.20069e-07
6.19771e-07
6.13708e-07
6.26818e-07
6.24306e-07
2.16682e-06
3.4163e-06
8.57519e-07
1.08806e-06
2.12499e-06
3.47264e-06
8.5901e-07
1.89528e-05
1.91127e-05
2.19615e-06
8.72804e-07
3.47478e-06
1.10983e-06
2.14802e-06
8.74647e-07
3.53739e-06
5.48152e-06
5.49024e-06
1.32595e-06
5.55864e-06
5.5616e-06
4.28569e-06
9.68468e-06
4.22165e-06
9.75495e-06
1.92755e-05
1.93377e-05
4.27793e-06
9.67835e-06
4.22889e-06
9.74455e-06
6.32951e-07
6.39482e-07
6.36616e-07
6.94105e-07
6.86512e-07
6.78028e-07
6.76498e-07
2.29536e-06
3.60968e-06
9.15606e-07
1.17847e-06
2.2604e-06
3.66379e-06
9.3756e-07
1.9238e-05
1.92552e-05
2.29079e-06
9.17712e-07
3.62625e-06
1.17473e-06
2.26921e-06
9.33505e-07
3.6493e-06
5.64806e-06
5.64313e-06
1.40791e-06
5.66069e-06
5.66002e-06
4.295e-06
9.75393e-06
4.31456e-06
9.71985e-06
1.93202e-05
1.93004e-05
4.29167e-06
9.75453e-06
4.29889e-06
9.73127e-06
6.95065e-07
6.86849e-07
6.85934e-07
7.03124e-07
6.9898e-07
7.00612e-07
7.00476e-07
2.30905e-06
3.69217e-06
9.65504e-07
1.20581e-06
2.31216e-06
3.68231e-06
9.65241e-07
1.92618e-05
1.93107e-05
2.3012e-06
9.57561e-07
3.6554e-06
1.19613e-06
2.30039e-06
9.59127e-07
3.65501e-06
5.6543e-06
5.66606e-06
1.4297e-06
5.65774e-06
5.67538e-06
4.28273e-06
9.70023e-06
4.27639e-06
9.71503e-06
1.93225e-05