/*--------------------------------*- C++ -*----------------------------------*\
| =========                 |                                                 |
| \\      /  F ield         | OpenFOAM: The Open Source CFD Toolbox           |
|  \\    /   O peration     | Version:  v2012                                 |
|   \\  /    A nd           | Website:  www.openfoam.com                      |
|    \\/     M anipulation  |                                                 |
\*---------------------------------------------------------------------------*/
FoamFile
{
    version     2.0;
    format      ascii;
    class       volScalarField;
    location    "750";
    object      k;
}
// * * * * * * * * * * * * * * * * * * * * * * * * * * * * * * * * * * * * * //

dimensions      [0 2 -2 0 0 0 0];


internalField   nonuniform List<scalar> 
85864
(
2.11979e-05
3.68989e-05
3.69013e-05
4.21271e-05
2.19637e-05
3.78091e-05
3.78108e-05
4.2851e-05
2.27447e-05
3.86882e-05
3.86908e-05
4.35481e-05
2.35434e-05
3.95441e-05
3.9547e-05
4.42236e-05
2.43454e-05
4.0367e-05
4.03695e-05
4.48704e-05
2.51652e-05
4.11713e-05
4.11729e-05
4.55023e-05
2.59755e-05
4.19305e-05
4.19319e-05
4.6096e-05
2.67831e-05
4.26696e-05
4.26751e-05
4.66765e-05
2.7606e-05
4.33916e-05
4.33897e-05
4.72407e-05
2.84042e-05
4.40648e-05
4.40674e-05
4.77652e-05
2.91881e-05
4.47138e-05
4.47188e-05
4.82757e-05
2.99725e-05
4.53462e-05
4.53428e-05
4.87683e-05
3.0744e-05
4.59477e-05
4.59527e-05
4.92437e-05
3.14879e-05
4.64971e-05
4.64972e-05
4.96659e-05
3.2188e-05
4.70528e-05
4.70539e-05
5.0107e-05
3.29427e-05
4.75746e-05
4.75841e-05
5.05302e-05
3.36103e-05
4.80644e-05
4.8056e-05
5.08875e-05
3.42445e-05
4.84836e-05
4.84746e-05
5.12288e-05
3.4836e-05
4.88916e-05
4.89097e-05
5.15277e-05
3.5422e-05
4.93263e-05
4.93342e-05
5.19316e-05
3.6326e-05
4.99725e-05
4.99685e-05
5.24371e-05
3.66924e-05
5.00665e-05
5.00702e-05
5.24009e-05
3.69033e-05
5.02569e-05
5.00709e-05
5.24816e-05
3.76256e-05
5.06846e-05
5.10857e-05
5.34599e-05
3.87081e-05
5.16828e-05
5.16455e-05
5.3842e-05
3.87816e-05
5.15869e-05
5.06328e-05
5.25684e-05
3.71093e-05
4.88858e-05
4.90672e-05
5.10423e-05
3.73485e-05
4.986e-05
5.22667e-05
5.47077e-05
4.44941e-05
5.81778e-05
5.751e-05
5.98019e-05
4.55934e-05
5.79063e-05
5.54465e-05
5.64455e-05
3.76079e-05
4.73407e-05
4.77125e-05
4.92257e-05
3.46711e-05
4.63731e-05
4.79236e-05
5.07553e-05
3.96695e-05
5.26542e-05
5.2146e-05
5.41924e-05
4.28609e-05
5.35567e-05
5.30551e-05
5.48455e-05
4.30138e-05
5.36285e-05
5.51468e-05
5.66224e-05
4.30928e-05
5.44026e-05
5.53165e-05
5.62141e-05
4.19574e-05
5.35275e-05
5.08621e-05
5.38011e-05
4.15305e-05
5.35901e-05
5.04665e-05
5.57592e-05
4.35256e-05
5.45911e-05
5.58115e-05
5.75215e-05
4.34791e-05
5.20622e-05
5.65635e-05
5.36008e-05
3.92153e-05
4.90234e-05
5.08386e-05
5.0401e-05
3.84501e-05
5.08831e-05
4.89039e-05
5.3209e-05
4.31532e-05
5.54715e-05
5.22268e-05
5.71944e-05
4.55051e-05
5.57324e-05
5.48454e-05
5.6917e-05
4.38534e-05
5.17407e-05
5.43015e-05
5.3835e-05
4.02845e-05
5.02612e-05
5.16013e-05
5.24123e-05
3.96754e-05
5.14976e-05
5.12101e-05
5.32295e-05
4.13996e-05
5.22984e-05
5.13335e-05
5.46444e-05
4.21254e-05
4.2687e-05
3.69012e-05
3.69006e-05
3.75852e-05
3.75854e-05
4.21234e-05
4.2686e-05
3.68993e-05
3.69016e-05
3.75832e-05
3.75864e-05
3.69042e-05
3.7584e-05
3.75886e-05
4.21251e-05
4.26877e-05
3.69019e-05
3.75865e-05
3.75867e-05
4.26893e-05
4.28486e-05
4.339e-05
3.78099e-05
3.78105e-05
3.84717e-05
3.84718e-05
4.28479e-05
4.33887e-05
3.78078e-05
3.78105e-05
3.84702e-05
3.84728e-05
3.78134e-05
3.84705e-05
3.84751e-05
4.28492e-05
4.33902e-05
3.78113e-05
3.8473e-05
3.84734e-05
4.33922e-05
4.3546e-05
4.40706e-05
3.86898e-05
3.86894e-05
3.93346e-05
3.93341e-05
4.35446e-05
4.40688e-05
3.86884e-05
3.86908e-05
3.93332e-05
3.93357e-05
3.86931e-05
3.93329e-05
3.93379e-05
4.35462e-05
4.40711e-05
3.86912e-05
3.93362e-05
3.93365e-05
4.40729e-05
4.42213e-05
4.4723e-05
3.95457e-05
3.95454e-05
4.01635e-05
4.01644e-05
4.42199e-05
4.47226e-05
3.95442e-05
3.95464e-05
4.01616e-05
4.01644e-05
3.95491e-05
4.01634e-05
4.01669e-05
4.42217e-05
4.47234e-05
3.95476e-05
4.01654e-05
4.01655e-05
4.47254e-05
4.48684e-05
4.53602e-05
4.03677e-05
4.03679e-05
4.0975e-05
4.09742e-05
4.48678e-05
4.53583e-05
4.03663e-05
4.03689e-05
4.09735e-05
4.09749e-05
4.03707e-05
4.09732e-05
4.0977e-05
4.48687e-05
4.53598e-05
4.03694e-05
4.0975e-05
4.09755e-05
4.53615e-05
4.55008e-05
4.59606e-05
4.11718e-05
4.11722e-05
4.1745e-05
4.17455e-05
4.54994e-05
4.59605e-05
4.11706e-05
4.11725e-05
4.17435e-05
4.17449e-05
4.11748e-05
4.17448e-05
4.17486e-05
4.55004e-05
4.5961e-05
4.11733e-05
4.17463e-05
4.17471e-05
4.59635e-05
4.60935e-05
4.65414e-05
4.19313e-05
4.19315e-05
4.24854e-05
4.24856e-05
4.60931e-05
4.65404e-05
4.19299e-05
4.19305e-05
4.24843e-05
4.24881e-05
4.19341e-05
4.24852e-05
4.249e-05
4.60937e-05
4.65434e-05
4.19326e-05
4.24902e-05
4.24898e-05
4.65447e-05
4.66729e-05
4.71146e-05
4.26691e-05
4.26697e-05
4.32168e-05
4.32168e-05
4.66722e-05
4.71136e-05
4.26689e-05
4.26733e-05
4.32149e-05
4.32143e-05
4.26743e-05
4.32159e-05
4.32184e-05
4.66754e-05
4.71123e-05
4.26745e-05
4.32142e-05
4.32163e-05
4.71155e-05
4.72406e-05
4.76467e-05
4.33938e-05
4.33924e-05
4.39007e-05
4.38996e-05
4.72391e-05
4.7644e-05
4.33915e-05
4.3389e-05
4.38987e-05
4.38998e-05
4.33951e-05
4.38984e-05
4.39012e-05
4.72366e-05
4.76458e-05
4.33931e-05
4.39011e-05
4.39002e-05
4.76471e-05
4.77644e-05
4.81548e-05
4.4066e-05
4.40662e-05
4.45509e-05
4.45528e-05
4.77626e-05
4.81566e-05
4.4064e-05
4.40664e-05
4.45516e-05
4.45564e-05
4.40668e-05
4.45536e-05
4.45577e-05
4.77653e-05
4.81595e-05
4.40651e-05
4.4558e-05
4.45569e-05
4.81597e-05
4.82702e-05
4.86545e-05
4.47109e-05
4.47131e-05
4.51895e-05
4.51919e-05
4.82719e-05
4.86559e-05
4.47125e-05
4.47172e-05
4.51877e-05
4.51872e-05
4.47185e-05
4.51916e-05
4.51921e-05
4.82745e-05
4.86529e-05
4.47185e-05
4.51898e-05
4.51921e-05
4.86574e-05
4.87664e-05
4.91367e-05
4.5344e-05
4.5346e-05
4.58015e-05
4.57974e-05
4.87679e-05
4.91308e-05
4.53415e-05
4.53397e-05
4.58003e-05
4.57985e-05
4.53463e-05
4.57975e-05
4.58035e-05
4.87635e-05
4.91325e-05
4.53456e-05
4.57999e-05
4.58024e-05
4.91362e-05
4.92452e-05
4.9574e-05
4.59554e-05
4.5949e-05
4.63722e-05
4.63723e-05
4.92374e-05
4.9573e-05
4.59545e-05
4.59525e-05
4.63706e-05
4.63732e-05
4.59545e-05
4.63703e-05
4.63687e-05
4.92414e-05
4.95765e-05
4.59536e-05
4.63721e-05
4.63662e-05
4.95718e-05
4.9665e-05
4.99835e-05
4.6492e-05
4.64969e-05
4.68888e-05
4.68943e-05
4.96681e-05
4.99916e-05
4.64919e-05
4.64971e-05
4.68923e-05
4.69014e-05
4.64952e-05
4.68994e-05
4.6908e-05
4.96699e-05
4.99923e-05
4.64934e-05
4.69072e-05
4.69107e-05
4.99996e-05
5.00939e-05
5.04522e-05
4.70448e-05
4.70502e-05
4.74767e-05
4.74762e-05
5.01003e-05
5.04472e-05
4.70451e-05
4.70487e-05
4.74664e-05
4.74515e-05
4.7056e-05
4.74694e-05
4.74639e-05
5.00989e-05
5.04364e-05
4.70569e-05
4.74551e-05
4.74607e-05
5.04412e-05
5.05388e-05
5.07954e-05
4.75895e-05
4.75792e-05
4.79299e-05
4.79234e-05
5.05286e-05
5.07838e-05
4.75856e-05
4.75789e-05
4.79378e-05
4.79556e-05
4.75854e-05
4.79263e-05
4.79371e-05
5.05271e-05
5.08125e-05
4.75879e-05
4.79553e-05
4.7941e-05
5.08027e-05
5.08851e-05
5.11576e-05
4.80552e-05
4.80621e-05
4.83898e-05
4.8386e-05
5.08821e-05
5.11611e-05
4.80557e-05
4.80601e-05
4.83879e-05
4.83574e-05
4.80543e-05
4.83909e-05
4.83876e-05
5.08941e-05
5.11208e-05
4.80481e-05
4.83521e-05
4.83763e-05
5.11468e-05
5.12328e-05
5.14335e-05
4.84926e-05
4.84777e-05
4.87758e-05
4.88012e-05
5.12295e-05
5.14524e-05
4.84977e-05
4.84796e-05
4.8775e-05
4.88194e-05
4.84974e-05
4.88029e-05
4.87969e-05
5.12047e-05
5.14894e-05
4.84921e-05
4.88274e-05
4.8801e-05
5.14612e-05
5.14981e-05
5.18084e-05
4.88502e-05
4.88924e-05
4.91829e-05
4.91761e-05
5.15333e-05
5.18001e-05
4.88447e-05
4.8893e-05
4.91769e-05
4.91692e-05
4.88743e-05
4.91685e-05
4.91804e-05
5.15575e-05
5.17922e-05
4.88831e-05
4.91856e-05
4.91936e-05
5.18086e-05
5.19446e-05
5.23943e-05
4.9366e-05
4.93342e-05
4.98979e-05
4.98598e-05
5.19084e-05
5.23502e-05
4.93605e-05
4.9328e-05
4.9897e-05
4.98563e-05
4.93476e-05
4.98589e-05
4.98784e-05
5.19056e-05
5.23525e-05
4.93529e-05
4.98454e-05
4.98677e-05
5.23736e-05
5.24504e-05
5.2389e-05
4.9994e-05
4.99704e-05
5.00489e-05
5.00597e-05
5.24163e-05
5.24211e-05
4.99974e-05
4.99778e-05
5.00579e-05
5.00792e-05
4.9988e-05
5.00668e-05
5.00626e-05
5.24241e-05
5.24242e-05
4.99795e-05
5.00759e-05
5.00595e-05
5.23957e-05
5.23964e-05
5.24163e-05
5.00368e-05
5.00594e-05
5.00554e-05
5.01979e-05
5.24329e-05
5.25654e-05
5.00454e-05
5.00727e-05
5.00397e-05
5.00421e-05
5.00517e-05
5.01764e-05
5.004e-05
5.24298e-05
5.23602e-05
5.00491e-05
5.00413e-05
5.0029e-05
5.23733e-05
5.25098e-05
5.30756e-05
5.01553e-05
5.02794e-05
5.06577e-05
5.04462e-05
5.26399e-05
5.28078e-05
5.00955e-05
5.00679e-05
5.06802e-05
5.07415e-05
5.01039e-05
5.04856e-05
5.08308e-05
5.24357e-05
5.31958e-05
5.00825e-05
5.07937e-05
5.08748e-05
5.32893e-05
5.32519e-05
5.39013e-05
5.0898e-05
5.06307e-05
5.15762e-05
5.15085e-05
5.29276e-05
5.37971e-05
5.09493e-05
5.10409e-05
5.16072e-05
5.16315e-05
5.10705e-05
5.15126e-05
5.15139e-05
5.33937e-05
5.3935e-05
5.11282e-05
5.16104e-05
5.15274e-05
5.3813e-05
5.39815e-05
5.33502e-05
5.16698e-05
5.16961e-05
5.15895e-05
5.17861e-05
5.39541e-05
5.40566e-05
5.16842e-05
5.16797e-05
5.15542e-05
5.14166e-05
5.15446e-05
5.17548e-05
5.13266e-05
5.39906e-05
5.29573e-05
5.15448e-05
5.13214e-05
5.11985e-05
5.28546e-05
5.29905e-05
5.06393e-05
5.11993e-05
5.16265e-05
4.91104e-05
4.92826e-05
5.38504e-05
5.07766e-05
5.1064e-05
5.07507e-05
4.91043e-05
4.91165e-05
5.07976e-05
4.93069e-05
4.93485e-05
5.25835e-05
5.07186e-05
5.05937e-05
4.91716e-05
4.93616e-05
5.10619e-05
5.05429e-05
5.2772e-05
4.88648e-05
4.88372e-05
4.9308e-05
4.88326e-05
5.0544e-05
5.12196e-05
4.89003e-05
4.89897e-05
4.94826e-05
4.99601e-05
4.92145e-05
4.88985e-05
4.98527e-05
5.06853e-05
5.37207e-05
4.92712e-05
5.01399e-05
5.01716e-05
5.35466e-05
5.4122e-05
6.02611e-05
5.09707e-05
4.97913e-05
5.72925e-05
5.70807e-05
5.25214e-05
6.0201e-05
5.13322e-05
5.20933e-05
5.72243e-05
5.70692e-05
5.1606e-05
5.69954e-05
5.676e-05
5.49756e-05
5.98956e-05
5.21021e-05
5.69686e-05
5.67057e-05
5.95031e-05
6.06916e-05
5.90483e-05
5.81609e-05
5.82955e-05
5.82699e-05
5.88625e-05
6.08663e-05
6.05554e-05
5.80065e-05
5.76531e-05
5.80269e-05
5.73524e-05
5.74202e-05
5.87217e-05
5.73207e-05
6.01792e-05
5.76014e-05
5.72632e-05
5.71558e-05
5.70234e-05
5.76804e-05
5.76729e-05
4.86312e-05
5.70879e-05
5.80434e-05
4.84393e-05
4.90362e-05
5.92309e-05
4.9125e-05
5.67623e-05
5.56942e-05
4.84041e-05
4.85878e-05
5.60272e-05
4.91266e-05
4.89778e-05
5.62484e-05
4.91826e-05
5.55421e-05
4.86728e-05
4.89e-05
4.95717e-05
4.79982e-05
4.81634e-05
4.68894e-05
4.71844e-05
4.59358e-05
4.58585e-05
4.8307e-05
4.77647e-05
4.69589e-05
4.7549e-05
4.61072e-05
4.71232e-05
4.78612e-05
4.60589e-05
4.72682e-05
4.88524e-05
5.00216e-05
4.79112e-05
4.73488e-05
4.74537e-05
5.00367e-05
4.92543e-05
5.52583e-05
4.64226e-05
4.62024e-05
5.23106e-05
5.17797e-05
4.87522e-05
5.46499e-05
4.66037e-05
4.7706e-05
5.22236e-05
5.16516e-05
4.76587e-05
5.15719e-05
5.13627e-05
5.08589e-05
5.41259e-05
4.78932e-05
5.14938e-05
5.13544e-05
5.38987e-05
5.57893e-05
5.62839e-05
5.34254e-05
5.29018e-05
5.42763e-05
5.37465e-05
5.51685e-05
5.55359e-05
5.33168e-05
5.23628e-05
5.42562e-05
5.30965e-05
5.20872e-05
5.35629e-05
5.28867e-05
5.43891e-05
5.46633e-05
5.19993e-05
5.28181e-05
5.28723e-05
5.46761e-05
5.61655e-05
5.56533e-05
5.42196e-05
5.37031e-05
5.38524e-05
5.35214e-05
5.54405e-05
5.51449e-05
5.42348e-05
5.32249e-05
5.39948e-05
5.46017e-05
5.31021e-05
5.3525e-05
5.41901e-05
5.47241e-05
5.69055e-05
5.32013e-05
5.47129e-05
5.43956e-05
5.64016e-05
5.56899e-05
5.58738e-05
5.38682e-05
5.35974e-05
5.40562e-05
5.43775e-05
5.53004e-05
5.63027e-05
5.40059e-05
5.50462e-05
5.40882e-05
5.54351e-05
5.44834e-05
5.43667e-05
5.46858e-05
5.72764e-05
5.78464e-05
5.46487e-05
5.54918e-05
5.47664e-05
5.65612e-05
5.58496e-05
5.41088e-05
5.40388e-05
5.44229e-05
5.2947e-05
5.38683e-05
5.63451e-05
5.53879e-05
5.40401e-05
5.5293e-05
5.25442e-05
5.17374e-05
5.45438e-05
5.38533e-05
5.28357e-05
5.7553e-05
5.25509e-05
5.45258e-05
5.17354e-05
5.24301e-05
5.38775e-05
5.39832e-05
5.44894e-05
5.26264e-05
5.3487e-05
5.25935e-05
5.32966e-05
5.52646e-05
5.53156e-05
5.21858e-05
5.08042e-05
5.21205e-05
5.01216e-05
5.26127e-05
5.33911e-05
5.28686e-05
5.20645e-05
5.1278e-05
5.21721e-05
5.0236e-05
5.23918e-05
5.51679e-05
5.50634e-05
5.74897e-05
5.30282e-05
5.34796e-05
5.50726e-05
5.45852e-05
5.56065e-05
5.66854e-05
5.25479e-05
5.03436e-05
5.51465e-05
5.48094e-05
5.36263e-05
5.45474e-05
5.50811e-05
5.17827e-05
5.73283e-05
5.32077e-05
5.47894e-05
5.51781e-05
5.75005e-05
5.76046e-05
5.54441e-05
5.52443e-05
5.46472e-05
5.45699e-05
5.36723e-05
5.67188e-05
5.41643e-05
5.54378e-05
5.58816e-05
5.5114e-05
5.67855e-05
5.51339e-05
5.35087e-05
5.36863e-05
5.79589e-05
5.91028e-05
5.53021e-05
5.66837e-05
5.4451e-05
5.44001e-05
5.45883e-05
5.03443e-05
5.30246e-05
5.21885e-05
4.92176e-05
4.92442e-05
5.34296e-05
5.03954e-05
5.3944e-05
5.66588e-05
4.96797e-05
5.22938e-05
5.21107e-05
4.92754e-05
4.92389e-05
5.89444e-05
5.33805e-05
5.29587e-05
5.23118e-05
4.96723e-05
5.04588e-05
5.01559e-05
5.11144e-05
4.87555e-05
4.89653e-05
4.87812e-05
4.93638e-05
5.03226e-05
5.23102e-05
4.90588e-05
5.07907e-05
4.88126e-05
4.88512e-05
4.89984e-05
4.94983e-05
4.95285e-05
5.26393e-05
5.03369e-05
4.9302e-05
4.89497e-05
4.94484e-05
5.23431e-05
5.19186e-05
5.66642e-05
4.96181e-05
5.06818e-05
5.43051e-05
5.48049e-05
5.32574e-05
5.73664e-05
4.92657e-05
4.87998e-05
5.37498e-05
5.07432e-05
5.09237e-05
5.48179e-05
5.45983e-05
5.03339e-05
5.31787e-05
5.03601e-05
5.08179e-05
5.40843e-05
5.68904e-05
5.72093e-05
5.82564e-05
5.52767e-05
5.55105e-05
5.62811e-05
5.60094e-05
5.77247e-05
5.78031e-05
5.48178e-05
5.223e-05
5.6057e-05
5.47416e-05
5.51976e-05
5.59007e-05
5.55865e-05
5.39576e-05
5.66156e-05
5.47545e-05
5.45881e-05
5.52829e-05
5.71595e-05
5.82187e-05
5.52181e-05
5.62635e-05
5.58694e-05
5.40211e-05
5.28214e-05
5.74378e-05
5.36967e-05
5.60687e-05
5.50197e-05
5.4397e-05
5.49743e-05
5.5443e-05
5.26677e-05
5.29131e-05
5.68048e-05
5.64265e-05
5.52171e-05
5.47973e-05
5.32193e-05
5.41707e-05
5.46777e-05
5.20279e-05
5.28532e-05
5.18365e-05
5.04255e-05
5.02797e-05
5.32529e-05
5.18359e-05
5.32439e-05
5.44486e-05
5.07305e-05
5.19847e-05
5.21058e-05
5.03296e-05
5.06765e-05
5.60892e-05
5.36452e-05
5.24437e-05
5.20016e-05
5.09447e-05
5.24335e-05
5.18952e-05
5.18842e-05
5.0101e-05
5.01878e-05
4.99455e-05
5.06125e-05
5.18434e-05
5.31339e-05
5.036e-05
5.15469e-05
5.0099e-05
5.10749e-05
5.05548e-05
5.07938e-05
5.06959e-05
5.34796e-05
5.30052e-05
5.07882e-05
5.11925e-05
5.08003e-05
5.29086e-05
5.21521e-05
5.40846e-05
5.01534e-05
5.13146e-05
5.20913e-05
5.2914e-05
5.35574e-05
5.50534e-05
5.02024e-05
5.10864e-05
5.18717e-05
5.1806e-05
5.11751e-05
5.30013e-05
5.26859e-05
5.30487e-05
5.39213e-05
5.10844e-05
5.19743e-05
5.2525e-05
5.46452e-05
5.42346e-05
5.1621e-05
5.22445e-05
5.50454e-05
5.14464e-05
5.12357e-05
4.23069e-05
4.09951e-05
4.18924e-05
5.19916e-05
5.39401e-05
5.18554e-05
6.48538e-05
7.13701e-05
6.47552e-05
7.14058e-05
6.95461e-05
6.95718e-05
6.48578e-05
7.1376e-05
6.47591e-05
7.14118e-05
2.1197e-05
2.12002e-05
2.12009e-05
2.17703e-05
2.17696e-05
2.17737e-05
2.17737e-05
5.36082e-05
6.02719e-05
2.92557e-05
3.71285e-05
5.34093e-05
6.03951e-05
2.95019e-05
6.95442e-05
6.95701e-05
5.36085e-05
2.92589e-05
6.02733e-05
3.71315e-05
5.34096e-05
2.95056e-05
6.03968e-05
6.69557e-05
6.69671e-05
4.23277e-05
6.70309e-05
6.70424e-05
6.50818e-05
7.1455e-05
6.49861e-05
7.14912e-05
6.96027e-05
6.96292e-05
6.50859e-05
7.1461e-05
6.499e-05
7.14972e-05
2.19636e-05
2.1967e-05
2.19673e-05
2.25478e-05
2.25477e-05
2.2551e-05
2.25516e-05
5.40743e-05
6.05634e-05
3.0241e-05
3.80315e-05
5.38836e-05
6.06815e-05
3.04858e-05
6.96008e-05
6.96276e-05
5.40744e-05
3.02443e-05
6.05644e-05
3.80331e-05
5.3884e-05
3.04888e-05
6.06825e-05
6.71332e-05
6.71447e-05
4.30441e-05
6.7206e-05
6.72175e-05
6.53034e-05
7.15412e-05
6.521e-05
7.15778e-05
6.96614e-05
6.96888e-05
6.53076e-05
7.15471e-05
6.52144e-05
7.15836e-05
2.27441e-05
2.27481e-05
2.27483e-05
2.33426e-05
2.33418e-05
2.3346e-05
2.33464e-05
5.45209e-05
6.08424e-05
3.12151e-05
3.89047e-05
5.43377e-05
6.09566e-05
3.14578e-05
6.96596e-05
6.96871e-05
5.45211e-05
3.1219e-05
6.08438e-05
3.89074e-05
5.4338e-05
3.14614e-05
6.09585e-05
6.73054e-05
6.73169e-05
4.37352e-05
6.73766e-05
6.73881e-05
6.55179e-05
7.1628e-05
6.54281e-05
7.16649e-05
6.9722e-05
6.97499e-05
6.55215e-05
7.16338e-05
6.54317e-05
7.16707e-05
2.35424e-05
2.35469e-05
2.35473e-05
2.41444e-05
2.41449e-05
2.41479e-05
2.41488e-05
5.495e-05
6.11126e-05
3.2182e-05
3.97528e-05
5.47746e-05
6.12216e-05
3.2421e-05
6.972e-05
6.97483e-05
5.49502e-05
3.21867e-05
6.11138e-05
3.97549e-05
5.47751e-05
3.2425e-05
6.12227e-05
6.74727e-05
6.74842e-05
4.44029e-05
6.75406e-05
6.75521e-05
6.57268e-05
7.17159e-05
6.56383e-05
7.17531e-05
6.97843e-05
6.98128e-05
6.57312e-05
7.17218e-05
6.56424e-05
7.1759e-05
2.43461e-05
2.43496e-05
2.43497e-05
2.49604e-05
2.49584e-05
2.49622e-05
2.4963e-05
5.53613e-05
6.13709e-05
3.31281e-05
4.05702e-05
5.51918e-05
6.1478e-05
3.33633e-05
6.97825e-05
6.98112e-05
5.5361e-05
3.31321e-05
6.13719e-05
4.05728e-05
5.51918e-05
3.33673e-05
6.14792e-05
6.76346e-05
6.7646e-05
4.5045e-05
6.77028e-05
6.77143e-05
6.59266e-05
7.18029e-05
6.58441e-05
7.18392e-05
6.98471e-05
6.98757e-05
6.59301e-05
7.18089e-05
6.5848e-05
7.18451e-05
2.51639e-05
2.51673e-05
2.5168e-05
2.57737e-05
2.57745e-05
2.57781e-05
2.57789e-05
5.57572e-05
6.16231e-05
3.40652e-05
4.13661e-05
5.55963e-05
6.17221e-05
3.42958e-05
6.98452e-05
6.9874e-05
5.57567e-05
3.40683e-05
6.16235e-05
4.13676e-05
5.5596e-05
3.42988e-05
6.17228e-05
6.77933e-05
6.78047e-05
4.56683e-05
6.78548e-05
6.78663e-05
6.61176e-05
7.18901e-05
6.60357e-05
7.19282e-05
6.99113e-05
6.99414e-05
6.6122e-05
7.1896e-05
6.60395e-05
7.1934e-05
2.59753e-05
2.59785e-05
2.59798e-05
2.65799e-05
2.65798e-05
2.65842e-05
2.65849e-05
5.61287e-05
6.18556e-05
3.49687e-05
4.21155e-05
5.59755e-05
6.19527e-05
3.51888e-05
6.99097e-05
6.99399e-05
5.61296e-05
3.49717e-05
6.18571e-05
4.21173e-05
5.59758e-05
3.51918e-05
6.1955e-05
6.79392e-05
6.79508e-05
4.62532e-05
6.80028e-05
6.80146e-05
6.63119e-05
7.19803e-05
6.62303e-05
7.20177e-05
6.99781e-05
7.00077e-05
6.6316e-05
7.1986e-05
6.62348e-05
7.20231e-05
2.67832e-05
2.679e-05
2.67896e-05
2.73998e-05
2.73999e-05
2.74024e-05
2.74029e-05
5.64986e-05
6.20898e-05
3.58496e-05
4.28534e-05
5.63458e-05
6.21868e-05
3.6069e-05
6.99762e-05
7.00059e-05
5.64987e-05
3.58567e-05
6.20916e-05
4.28573e-05
5.6347e-05
3.60755e-05
6.21873e-05
6.80917e-05
6.81034e-05
4.68342e-05
6.81534e-05
6.81649e-05
6.64919e-05
7.20675e-05
6.64177e-05
7.21032e-05
7.00433e-05
7.00728e-05
6.64938e-05
7.20729e-05
6.642e-05
7.21087e-05
2.76052e-05
2.76053e-05
2.7608e-05
2.8207e-05
2.82051e-05
2.82095e-05
2.82105e-05
5.68455e-05
6.23139e-05
3.67204e-05
4.35629e-05
5.67054e-05
6.24005e-05
3.69301e-05
7.00416e-05
7.00717e-05
5.68436e-05
3.67197e-05
6.23124e-05
4.35627e-05
5.67034e-05
3.69309e-05
6.24008e-05
6.8234e-05
6.82452e-05
4.73865e-05
6.82897e-05
6.83013e-05
6.66608e-05
7.21527e-05
6.65885e-05
7.21898e-05
7.01098e-05
7.01403e-05
6.66664e-05
7.21588e-05
6.65925e-05
7.2196e-05
2.84034e-05
2.84078e-05
2.84062e-05
2.89938e-05
2.89943e-05
2.8999e-05
2.89993e-05
5.7172e-05
6.25192e-05
3.75415e-05
4.42299e-05
5.70367e-05
6.26057e-05
3.77432e-05
7.01084e-05
7.01387e-05
5.71729e-05
3.75448e-05
6.25224e-05
4.42322e-05
5.70374e-05
3.77453e-05
6.26084e-05
6.83664e-05
6.83778e-05
4.79037e-05
6.84228e-05
6.8434e-05
6.68335e-05
7.22414e-05
6.67603e-05
7.22788e-05
7.01779e-05
7.02084e-05
6.68376e-05
7.22471e-05
6.67657e-05
7.2284e-05
2.91885e-05
2.9196e-05
2.91957e-05
2.97769e-05
2.97791e-05
2.97817e-05
2.97824e-05
5.74945e-05
6.2724e-05
3.83361e-05
4.48742e-05
5.7362e-05
6.28078e-05
3.85321e-05
7.01757e-05
7.02065e-05
5.74951e-05
3.83423e-05
6.27247e-05
4.48778e-05
5.73621e-05
3.85381e-05
6.28082e-05
6.85008e-05
6.85127e-05
4.84117e-05
6.85555e-05
6.85681e-05
6.70012e-05
7.23297e-05
6.6931e-05
7.23658e-05
7.02458e-05
7.02756e-05
6.70029e-05
7.23347e-05
6.69326e-05
7.23711e-05
2.99752e-05
2.99741e-05
2.99767e-05
3.05484e-05
3.05468e-05
3.05499e-05
3.05545e-05
5.7803e-05
6.29231e-05
3.91109e-05
4.54978e-05
5.76765e-05
6.30029e-05
3.92978e-05
7.02441e-05
7.02748e-05
5.7801e-05
3.91113e-05
6.29213e-05
4.54946e-05
5.76763e-05
3.92974e-05
6.30018e-05
6.86305e-05
6.86421e-05
4.8898e-05
6.86852e-05
6.86961e-05
6.71531e-05
7.24129e-05
6.70909e-05
7.24461e-05
7.03118e-05
7.03416e-05
6.71587e-05
7.24188e-05
6.70954e-05
7.24521e-05
3.07395e-05
3.07454e-05
3.07481e-05
3.13175e-05
3.13124e-05
3.13172e-05
3.13121e-05
5.80907e-05
6.31075e-05
3.98519e-05
4.60954e-05
5.7974e-05
6.31799e-05
4.00353e-05
7.03109e-05
7.03402e-05
5.80915e-05
3.98562e-05
6.3111e-05
4.61013e-05
5.79731e-05
4.00405e-05
6.31845e-05
6.87554e-05
6.87663e-05
4.93649e-05
6.87985e-05
6.88099e-05
6.72896e-05
7.24937e-05
6.72297e-05
7.25329e-05
7.03797e-05
7.04123e-05
6.72946e-05
7.24996e-05
6.72349e-05
7.25382e-05
3.14878e-05
3.14904e-05
3.14851e-05
3.19967e-05
3.20009e-05
3.20143e-05
3.20172e-05
5.83554e-05
6.32737e-05
4.05434e-05
4.66231e-05
5.82462e-05
6.33441e-05
4.07014e-05
7.03771e-05
7.04098e-05
5.83541e-05
4.0543e-05
6.32741e-05
4.6625e-05
5.82459e-05
4.07027e-05
6.33434e-05
6.88574e-05
6.88691e-05
4.9773e-05
6.89106e-05
6.8923e-05
6.74688e-05
7.25889e-05
6.73914e-05
7.26234e-05
7.04522e-05
7.048e-05
6.74657e-05
7.25932e-05
6.73927e-05
7.26277e-05
3.21912e-05
3.22046e-05
3.22068e-05
3.27695e-05
3.27787e-05
3.27524e-05
3.27618e-05
5.86474e-05
6.34611e-05
4.12145e-05
4.72066e-05
5.85231e-05
6.35429e-05
4.13973e-05
7.04497e-05
7.04791e-05
5.86485e-05
4.12229e-05
6.34597e-05
4.71946e-05
5.85242e-05
4.13947e-05
6.35411e-05
6.89956e-05
6.9008e-05
5.0235e-05
6.90461e-05
6.90582e-05
6.75746e-05
7.2662e-05
6.75379e-05
7.26931e-05
7.05116e-05
7.05416e-05
6.7586e-05
7.26685e-05
6.75385e-05
7.27006e-05
3.29427e-05
3.29281e-05
3.29391e-05
3.34398e-05
3.34198e-05
3.34678e-05
3.34502e-05
5.88742e-05
6.36157e-05
4.18762e-05
4.7678e-05
5.87905e-05
6.36623e-05
4.20139e-05
7.05126e-05
7.0541e-05
5.88836e-05
4.18784e-05
6.36254e-05
4.77144e-05
5.87939e-05
4.20401e-05
6.36823e-05
6.90952e-05
6.91077e-05
5.06238e-05
6.91329e-05
6.91449e-05
6.77154e-05
7.27412e-05
6.76494e-05
7.27715e-05
7.05802e-05
7.0606e-05
6.77143e-05
7.27473e-05
6.76619e-05
7.27766e-05
3.36063e-05
3.36291e-05
3.36107e-05
3.40914e-05
3.40988e-05
3.40612e-05
3.40863e-05
5.9122e-05
6.37673e-05
4.2473e-05
4.81914e-05
5.90123e-05
6.38402e-05
4.26289e-05
7.0574e-05
7.06019e-05
5.90929e-05
4.24751e-05
6.3758e-05
4.81486e-05
5.90097e-05
4.2598e-05
6.38014e-05
6.9192e-05
6.91983e-05
5.09769e-05
6.92291e-05
6.92336e-05
6.77876e-05
7.28059e-05
6.77639e-05
7.28369e-05
7.06374e-05
7.0671e-05
6.78046e-05
7.28122e-05
6.77657e-05
7.28421e-05
3.42342e-05
3.42216e-05
3.42447e-05
3.47012e-05
3.47142e-05
3.4734e-05
3.47138e-05
5.9294e-05
6.38825e-05
4.30191e-05
4.85867e-05
5.92335e-05
6.39142e-05
4.31505e-05
7.06404e-05
7.06714e-05
5.93043e-05
4.30038e-05
6.38756e-05
4.86036e-05
5.92076e-05
4.31559e-05
6.39484e-05
6.92725e-05
6.92859e-05
5.1316e-05
6.92947e-05
6.93134e-05
6.79299e-05
7.28975e-05
6.78542e-05
7.29547e-05
7.07199e-05
7.07589e-05
6.79087e-05
7.2899e-05
6.78557e-05
7.29567e-05
3.48719e-05
3.48792e-05
3.48563e-05
3.5239e-05
3.52463e-05
3.52648e-05
3.52671e-05
5.94918e-05
6.39967e-05
4.35385e-05
4.89679e-05
5.93996e-05
6.4062e-05
4.36371e-05
7.07132e-05
7.07562e-05
5.95072e-05
4.35558e-05
6.4016e-05
4.8984e-05
5.94318e-05
4.36625e-05
6.40582e-05
6.93224e-05
6.9339e-05
5.15939e-05
6.93974e-05
6.94115e-05
6.8182e-05
7.30283e-05
6.80747e-05
7.30491e-05
7.08041e-05
7.08235e-05
6.81909e-05
7.30359e-05
6.80686e-05
7.30583e-05
3.54003e-05
3.5426e-05
3.54339e-05
3.6116e-05
3.60877e-05
3.60578e-05
3.60821e-05
5.98528e-05
6.42239e-05
4.40223e-05
4.95126e-05
5.96708e-05
6.43485e-05
4.42251e-05
7.08046e-05
7.08239e-05
5.98486e-05
4.40465e-05
6.42243e-05
4.9507e-05
5.96749e-05
4.42274e-05
6.43475e-05
6.95814e-05
6.95878e-05
5.21268e-05
6.96596e-05
6.96632e-05
6.81783e-05
7.30407e-05
6.82158e-05
7.30347e-05
7.08298e-05
7.0842e-05
6.82058e-05
7.30488e-05
6.8233e-05
7.30395e-05
3.63058e-05
3.62737e-05
3.62961e-05
3.6665e-05
3.66361e-05
3.66993e-05
3.66842e-05
5.9999e-05
6.43938e-05
4.48117e-05
5.0037e-05
5.99952e-05
6.43502e-05
4.49239e-05
7.08273e-05
7.08321e-05
5.99918e-05
4.47876e-05
6.44042e-05
5.00429e-05
5.99847e-05
4.49154e-05
6.438e-05
6.96586e-05
6.96631e-05
5.24554e-05
6.95659e-05
6.95697e-05
6.81101e-05
7.30673e-05
6.80812e-05
7.31242e-05
7.08871e-05
7.09281e-05
6.8082e-05
7.30619e-05
6.80901e-05
7.31143e-05
3.66818e-05
3.67481e-05
3.67217e-05
3.67897e-05
3.69273e-05
3.67936e-05
3.67722e-05
5.99083e-05
6.42914e-05
4.5019e-05
5.00695e-05
5.99199e-05
6.43388e-05
4.50289e-05
7.08597e-05
7.09143e-05
5.98596e-05
4.50428e-05
6.42389e-05
5.00507e-05
5.99006e-05
4.50417e-05
6.42139e-05
6.94354e-05
6.94402e-05
5.23266e-05
6.94362e-05
6.94488e-05
6.83673e-05
7.32145e-05
6.82899e-05
7.32777e-05
7.09674e-05
7.10126e-05
6.83474e-05
7.32168e-05
6.82127e-05
7.33018e-05
3.70315e-05
3.68355e-05
3.68377e-05
3.73885e-05
3.72816e-05
3.74194e-05
3.75161e-05
6.02303e-05
6.44527e-05
4.5239e-05
5.03109e-05
6.00679e-05
6.44902e-05
4.53453e-05
7.10127e-05
7.10794e-05
6.02585e-05
4.50777e-05
6.43916e-05
5.01972e-05
5.99884e-05
4.52062e-05
6.46231e-05
6.96946e-05
6.97359e-05
5.27689e-05
6.9907e-05
6.99491e-05
6.8671e-05
7.33925e-05
6.84631e-05
7.34534e-05
7.11083e-05
7.11561e-05
6.8839e-05
7.34337e-05
6.85962e-05
7.34754e-05
3.74358e-05
3.77215e-05
3.77837e-05
3.84987e-05
3.8366e-05
3.85805e-05
3.84976e-05
6.06889e-05
6.46619e-05
4.58035e-05
5.09586e-05
6.04557e-05
6.49068e-05
4.60628e-05
7.11309e-05
7.11247e-05
6.09014e-05
4.60788e-05
6.49658e-05
5.13335e-05
6.06653e-05
4.63476e-05
6.51709e-05
7.02011e-05
7.02402e-05
5.36613e-05
7.03206e-05
7.03341e-05
6.9083e-05
7.33608e-05
6.90211e-05
7.30869e-05
7.10887e-05
7.09312e-05
6.88837e-05
7.331e-05
6.90917e-05
7.30202e-05
3.86702e-05
3.87291e-05
3.86355e-05
3.88525e-05
3.8977e-05
3.87693e-05
3.86894e-05
6.10894e-05
6.52871e-05
4.67587e-05
5.17628e-05
6.10193e-05
6.53987e-05
4.68388e-05
7.09143e-05
7.07382e-05
6.07827e-05
4.67377e-05
6.53056e-05
5.16434e-05
6.10623e-05
4.67457e-05
6.48221e-05
7.01988e-05
7.00588e-05
5.37005e-05
6.96686e-05
6.95289e-05
6.66685e-05
7.25797e-05
6.76768e-05
7.25093e-05
7.05908e-05
7.05768e-05
6.65e-05
7.25771e-05
6.73125e-05
7.25451e-05
3.89544e-05
3.86234e-05
3.85837e-05
3.74359e-05
3.76655e-05
3.73654e-05
3.75012e-05
5.88985e-05
6.41833e-05
4.67363e-05
5.09604e-05
5.9989e-05
6.30627e-05
4.633e-05
7.0613e-05
7.07736e-05
5.85426e-05
4.62069e-05
6.33389e-05
4.99512e-05
5.93302e-05
4.56101e-05
6.26521e-05
6.85057e-05
6.84774e-05
5.16551e-05
6.80139e-05
6.8087e-05
6.663e-05
7.31468e-05
6.58304e-05
7.40224e-05
7.1065e-05
7.1687e-05
6.74741e-05
7.32736e-05
6.60813e-05
7.41175e-05
3.71743e-05
3.71467e-05
3.72822e-05
3.69634e-05
3.67885e-05
3.71921e-05
3.72593e-05
5.78832e-05
6.19479e-05
4.4597e-05
4.87154e-05
5.77694e-05
6.21362e-05
4.44379e-05
7.1441e-05
7.19653e-05
5.91213e-05
4.47091e-05
6.24629e-05
4.90749e-05
5.80776e-05
4.46866e-05
6.39267e-05
6.8249e-05
6.85145e-05
5.12376e-05
6.96e-05
6.97704e-05
7.25802e-05
7.53674e-05
7.04068e-05
7.56834e-05
7.25463e-05
7.272e-05
7.26995e-05
7.5319e-05
7.08975e-05
7.55671e-05
3.69716e-05
3.78317e-05
3.77328e-05
4.30817e-05
4.26579e-05
4.31032e-05
4.28137e-05
6.44849e-05
6.59544e-05
4.51437e-05
5.24854e-05
6.17154e-05
6.84511e-05
4.71788e-05
7.24341e-05
7.23838e-05
6.49844e-05
4.66463e-05
6.73258e-05
5.4319e-05
6.28188e-05
4.87422e-05
6.9034e-05
7.24519e-05
7.23298e-05
5.72784e-05
7.37226e-05
7.3539e-05
7.36276e-05
7.49255e-05
7.43686e-05
7.37349e-05
7.21351e-05
7.13304e-05
7.25037e-05
7.47691e-05
7.38889e-05
7.36076e-05
4.44607e-05
4.41915e-05
4.39827e-05
4.57686e-05
4.62715e-05
4.50609e-05
4.50058e-05
6.72722e-05
7.08735e-05
5.28449e-05
5.87379e-05
6.71882e-05
7.08585e-05
5.34691e-05
7.15118e-05
7.08375e-05
6.59366e-05
5.23836e-05
7.00229e-05
5.76638e-05
6.6608e-05
5.26698e-05
6.85028e-05
7.40967e-05
7.3984e-05
5.9924e-05
7.20773e-05
7.20682e-05
6.52183e-05
7.19644e-05
6.81044e-05
7.15719e-05
7.01851e-05
7.00196e-05
6.50068e-05
7.19168e-05
6.74342e-05
7.15871e-05
4.6172e-05
4.48108e-05
4.48215e-05
3.97976e-05
4.06382e-05
3.95435e-05
3.99009e-05
5.84129e-05
6.54929e-05
5.31284e-05
5.52253e-05
6.21287e-05
6.22246e-05
5.13553e-05
7.02153e-05
7.02671e-05
5.76183e-05
5.16949e-05
6.36305e-05
5.26647e-05
6.05928e-05
4.93991e-05
6.14951e-05
6.82064e-05
6.82526e-05
5.27989e-05
6.6887e-05
6.69456e-05
6.40829e-05
7.20456e-05
6.33428e-05
7.28395e-05
7.04648e-05
7.10081e-05
6.49141e-05
7.21561e-05
6.37622e-05
7.29187e-05
3.81631e-05
3.78419e-05
3.81401e-05
3.47084e-05
3.46233e-05
3.56494e-05
3.56981e-05
5.5307e-05
5.98302e-05
4.37018e-05
4.63905e-05
5.52816e-05
6.00833e-05
4.25993e-05
7.08347e-05
7.12343e-05
5.6427e-05
4.38558e-05
6.06254e-05
4.73121e-05
5.57562e-05
4.32088e-05
6.1798e-05
6.68776e-05
6.69951e-05
4.89434e-05
6.8057e-05
6.81449e-05
6.91558e-05
7.40375e-05
6.74533e-05
7.44005e-05
7.16431e-05
7.18003e-05
6.91341e-05
7.40011e-05
6.7811e-05
7.43428e-05
3.45146e-05
3.56256e-05
3.56368e-05
3.77751e-05
3.69737e-05
3.75479e-05
3.71845e-05
6.02742e-05
6.31373e-05
4.21764e-05
4.7759e-05
5.84642e-05
6.47774e-05
4.29063e-05
7.15491e-05
7.15933e-05
6.04897e-05
4.31801e-05
6.407e-05
4.93032e-05
5.92466e-05
4.40363e-05
6.4913e-05
6.96918e-05
6.95383e-05
5.23553e-05
7.00767e-05
6.99055e-05
7.01383e-05
7.44021e-05
7.03142e-05
7.42285e-05
7.17595e-05
7.171e-05
6.97869e-05
7.43992e-05
6.99146e-05
7.4281e-05
3.89042e-05
3.88563e-05
3.85019e-05
4.2591e-05
4.19711e-05
4.13989e-05
4.12105e-05
6.17911e-05
6.60024e-05
4.77729e-05
5.32524e-05
6.17249e-05
6.59821e-05
4.85393e-05
7.1609e-05
7.17283e-05
6.12873e-05
4.74628e-05
6.52122e-05
5.25204e-05
6.12693e-05
4.80126e-05
6.50461e-05
6.99622e-05
7.00282e-05
5.44649e-05
6.98416e-05
7.00113e-05
6.91881e-05
7.41261e-05
6.929e-05
7.42e-05
7.17627e-05
7.18934e-05