/*--------------------------------*- C++ -*----------------------------------*\
| =========                 |                                                 |
| \\      /  F ield         | OpenFOAM: The Open Source CFD Toolbox           |
|  \\    /   O peration     | Version:  v2012                                 |
|   \\  /    A nd           | Website:  www.openfoam.com                      |
|    \\/     M anipulation  |                                                 |
\*---------------------------------------------------------------------------*/
FoamFile
{
    version     2.0;
    format      ascii;
    class       volScalarField;
    location    "750";
    object      nut;
}
// * * * * * * * * * * * * * * * * * * * * * * * * * * * * * * * * * * * * * //

dimensions      [0 2 -1 0 0 0 0];


internalField   nonuniform List<scalar> 
85864
(
0.000123731
0.000140136
0.000140136
0.000137737
0.000126565
0.000143277
0.000143275
0.000140165
0.00012953
0.000146352
0.000146353
0.000142532
0.000132669
0.000149409
0.000149415
0.000144863
0.000135857
0.000152383
0.000152385
0.000147115
0.000139251
0.000155367
0.000155364
0.000149362
0.000142629
0.000158204
0.000158198
0.000151486
0.000146012
0.000161
0.000161024
0.000153582
0.00014962
0.000163834
0.000163807
0.000155674
0.000153143
0.000166478
0.000166479
0.000157622
0.000156614
0.000169066
0.000169088
0.000159541
0.000160185
0.000171663
0.00017163
0.000161422
0.000163748
0.000174173
0.000174186
0.000163281
0.000167367
0.000176506
0.000176492
0.000164925
0.000170425
0.000178831
0.000178854
0.000166645
0.000174361
0.000181247
0.000181223
0.000168409
0.00017761
0.000183389
0.000183428
0.00016987
0.000180785
0.00018533
0.000185187
0.000171295
0.00018373
0.00018723
0.000187322
0.000172495
0.000186072
0.000188901
0.000188971
0.000173966
0.000192165
0.000192703
0.00019263
0.000176571
0.0001945
0.00019325
0.00019343
0.000176695
0.000194053
0.00019395
0.000192264
0.000175975
0.000197518
0.000195192
0.0001975
0.000180574
0.000206424
0.000201218
0.000201788
0.000183507
0.000210248
0.000205496
0.000199477
0.000180009
0.000194874
0.00018846
0.000187642
0.000170061
0.00018171
0.000180282
0.000195672
0.00017893
0.000242297
0.000233782
0.000231892
0.000207932
0.000277212
0.000256614
0.000238062
0.000206112
0.000209198
0.000185624
0.000185109
0.000166357
0.000168952
0.000167818
0.000178247
0.000167024
0.000201839
0.000206857
0.000204892
0.000185141
0.000235829
0.00021494
0.000209046
0.000186855
0.000236595
0.00021221
0.000221154
0.000195114
0.000237621
0.000218281
0.000229204
0.000197327
0.000230517
0.000214707
0.000201714
0.000183684
0.000221319
0.000211981
0.000191425
0.000189211
0.000238826
0.000220625
0.000224821
0.000203064
0.000252091
0.000214254
0.000240594
0.00019076
0.000213326
0.000193115
0.000206809
0.000171203
0.000196041
0.000195991
0.000189759
0.000177995
0.00023211
0.000226162
0.000205307
0.000199547
0.00026118
0.00023434
0.000224965
0.000202821
0.000257703
0.00021131
0.00022715
0.000189117
0.000222572
0.000200552
0.000208544
0.000180931
0.000211659
0.000204911
0.000203995
0.000182497
0.000228634
0.000218877
0.00021273
0.000194831
0.000137735
0.000139754
0.000140128
0.000140118
0.000142481
0.000142476
0.000137732
0.000139757
0.000140132
0.000140117
0.000142486
0.000142477
0.000140136
0.000142494
0.000142491
0.000137729
0.000139755
0.000140139
0.000142497
0.000142496
0.00013976
0.000140159
0.000142136
0.000143261
0.00014326
0.00014557
0.000145568
0.000140163
0.000142138
0.000143265
0.000143254
0.000145578
0.000145566
0.000143272
0.000145586
0.000145582
0.000140159
0.000142133
0.000143276
0.000145586
0.000145588
0.000142141
0.000142527
0.000144478
0.000146339
0.000146334
0.000148639
0.000148632
0.000142528
0.000144476
0.000146347
0.000146334
0.000148648
0.000148636
0.00014635
0.00014865
0.00014865
0.000142525
0.000144477
0.000146355
0.000148657
0.000148657
0.000144483
0.000144858
0.000146745
0.000149399
0.000149393
0.000151624
0.000151627
0.000144857
0.000146751
0.000149407
0.000149394
0.000151627
0.000151617
0.00014941
0.000151644
0.000151636
0.000144856
0.000146744
0.000149418
0.000151642
0.000151643
0.000146752
0.000147109
0.000149004
0.000152365
0.000152365
0.000154618
0.000154608
0.000147115
0.000149001
0.000152372
0.000152363
0.000154625
0.000154606
0.000152375
0.000154624
0.000154619
0.000147108
0.000148998
0.000152383
0.000154623
0.000154626
0.000149003
0.000149362
0.000151152
0.000155353
0.00015535
0.000157494
0.000157494
0.000149361
0.000151159
0.000155361
0.000155346
0.000157501
0.000157485
0.000155359
0.000157513
0.000157508
0.000149356
0.000151149
0.000155366
0.000157509
0.000157514
0.000151159
0.00015148
0.000153239
0.000158189
0.000158187
0.000160276
0.000160274
0.000151485
0.000153241
0.000158196
0.000158173
0.000160284
0.000160279
0.000158196
0.000160293
0.000160294
0.000151476
0.000153245
0.000158202
0.000160308
0.000160306
0.000153248
0.000153569
0.000155357
0.000160978
0.000160978
0.000163122
0.000163123
0.000153573
0.000155362
0.000160992
0.000160996
0.000163129
0.000163106
0.000161002
0.00016314
0.000163125
0.00015358
0.000155347
0.000161019
0.000163119
0.000163129
0.000155358
0.000155677
0.000157341
0.000163825
0.000163817
0.000165818
0.000165805
0.00015568
0.000157332
0.000163828
0.000163789
0.000165822
0.000165798
0.000163826
0.00016582
0.000165811
0.000155657
0.000157327
0.000163828
0.000165822
0.000165822
0.000157335
0.000157627
0.000159239
0.000166471
0.000166466
0.000168394
0.000168399
0.000157622
0.000159253
0.000166473
0.000166459
0.000168411
0.000168414
0.000166461
0.000168424
0.000168422
0.000157623
0.000159259
0.000166467
0.000168438
0.00016843
0.000159254
0.000159521
0.00016114
0.000169032
0.00016904
0.00017099
0.000171005
0.000159535
0.000161157
0.000169057
0.000169065
0.000170998
0.000170977
0.000169069
0.000171023
0.000171
0.000159541
0.000161134
0.000169083
0.000171006
0.000171017
0.000161152
0.000161415
0.000163016
0.000171627
0.000171642
0.000173528
0.000173507
0.000161434
0.000163
0.000171629
0.000171597
0.000173536
0.000173499
0.000171633
0.000173533
0.00017354
0.000161402
0.00016299
0.000171646
0.000173527
0.000173549
0.000163011
0.000163291
0.000164755
0.000174196
0.000174157
0.000176007
0.000175987
0.000163261
0.000164744
0.000174206
0.000174166
0.000176008
0.000175987
0.00017419
0.000175989
0.000175955
0.000163265
0.000164754
0.000174201
0.000175991
0.000175953
0.000164725
0.000164943
0.000166285
0.000176478
0.000176492
0.000178053
0.000178082
0.000164952
0.000166336
0.000176487
0.000176485
0.0001781
0.000178148
0.000176462
0.00017814
0.000178179
0.000164954
0.000166339
0.00017646
0.000178195
0.000178215
0.000166369
0.000166569
0.000168268
0.000178751
0.000178782
0.000180805
0.00018083
0.000166615
0.000168271
0.000178784
0.000178808
0.000180743
0.000180612
0.000178843
0.000180806
0.000180706
0.000166609
0.000168175
0.000178871
0.000180644
0.000180686
0.000168204
0.000168466
0.00016964
0.000181306
0.000181264
0.000182754
0.000182683
0.00016844
0.000169572
0.000181274
0.000181178
0.000182832
0.000182953
0.000181251
0.000182717
0.000182805
0.000168386
0.000169753
0.000181265
0.00018298
0.000182872
0.000169683
0.000169849
0.000171195
0.000183335
0.00018336
0.000184908
0.000184896
0.000169824
0.000171221
0.000183369
0.000183427
0.000184896
0.000184647
0.000183332
0.000184942
0.000184862
0.000169933
0.000170968
0.000183336
0.000184628
0.000184794
0.000171111
0.000171353
0.000172299
0.000185386
0.000185273
0.000186681
0.000186794
0.000171337
0.000172373
0.000185424
0.000185212
0.000186706
0.00018693
0.000185377
0.000186834
0.000186786
0.000171144
0.000172557
0.000185344
0.000186959
0.000186803
0.000172416
0.000172355
0.000173583
0.000186939
0.000187205
0.000188153
0.000188208
0.000172532
0.000173636
0.000186929
0.000187231
0.000188137
0.000188162
0.000187082
0.000188188
0.000188187
0.000172662
0.000173579
0.00018713
0.000188308
0.000188307
0.00017362
0.000173999
0.000176515
0.000189051
0.000188927
0.000192222
0.000191951
0.000173902
0.000176298
0.000189037
0.000188882
0.000192204
0.000191858
0.000188971
0.000191943
0.000192036
0.000173867
0.000176271
0.000189051
0.00019181
0.000191986
0.00017639
0.000176657
0.000176806
0.000192896
0.000192697
0.000193313
0.000193271
0.000176486
0.000176882
0.000192901
0.000192677
0.000193377
0.000193478
0.000192792
0.000193336
0.000193382
0.000176492
0.000177001
0.000192749
0.000193468
0.000193384
0.000176856
0.000176649
0.000176265
0.000193174
0.000193154
0.000192512
0.000193642
0.000176725
0.000177247
0.000193263
0.000193434
0.000192528
0.000192641
0.000193284
0.00019353
0.000192323
0.000176852
0.000175986
0.000193296
0.000192611
0.000192293
0.000175864
0.000176391
0.000178799
0.000192879
0.000194118
0.000195161
0.000194228
0.000177405
0.000177755
0.000192521
0.000192308
0.000195213
0.000195401
0.000192247
0.000194423
0.000196171
0.000175915
0.000179265
0.000192092
0.000195742
0.000196389
0.00017988
0.000179381
0.000183164
0.000196404
0.000194848
0.000200785
0.000199815
0.000177897
0.000182101
0.000196674
0.000197149
0.00020103
0.000201274
0.000197652
0.00019994
0.000200807
0.000180022
0.000183648
0.000198006
0.000201249
0.000200953
0.000183389
0.000183579
0.000184941
0.000201575
0.000201213
0.000204609
0.000204509
0.000182828
0.000187583
0.000201723
0.000201865
0.000204599
0.000204071
0.0002012
0.000204382
0.000202791
0.000183949
0.000182952
0.000201343
0.000203424
0.000202105
0.000181756
0.000182945
0.000170371
0.000203621
0.00020579
0.000189844
0.000191772
0.000186835
0.000172289
0.000202705
0.000200455
0.000189571
0.000189051
0.000200101
0.000191768
0.000190348
0.000180707
0.000169826
0.000198642
0.000189208
0.000190157
0.000171317
0.000168842
0.000169854
0.000187626
0.000188283
0.000179586
0.000178529
0.000170489
0.000163279
0.000187587
0.000187369
0.000180438
0.000182881
0.000188898
0.00017898
0.000183194
0.000168301
0.000174694
0.000188866
0.000184068
0.000184899
0.000174456
0.000174813
0.000207937
0.000186564
0.000179718
0.000227449
0.000224781
0.000167266
0.000206054
0.00018907
0.00019432
0.000227409
0.000227445
0.000191698
0.000224363
0.000225402
0.000179663
0.0002074
0.000195117
0.000227033
0.000225528
0.000205642
0.000210927
0.000220949
0.00023471
0.00023446
0.000252989
0.000255263
0.000210205
0.000228058
0.00023401
0.000232628
0.000251318
0.000246737
0.000231066
0.000254138
0.000245928
0.000209687
0.000212643
0.000230448
0.000245329
0.000244165
0.000212585
0.00021427
0.000167081
0.000251912
0.000257923
0.000194184
0.000198903
0.000222095
0.000170355
0.000249283
0.00024014
0.000193527
0.000192283
0.000242331
0.000199117
0.000194968
0.000205521
0.000167277
0.00023869
0.000192467
0.000194039
0.000169001
0.000162738
0.000154105
0.000182431
0.000184907
0.000167889
0.000168309
0.000164873
0.000152887
0.000182577
0.000184348
0.000169066
0.000175207
0.000186425
0.000169707
0.000176422
0.000164702
0.000164086
0.000186448
0.000176755
0.000177612
0.000164335
0.000157692
0.000188391
0.000166879
0.000166379
0.000202665
0.000199875
0.0001559
0.00018611
0.000168316
0.000176467
0.000202212
0.000200971
0.000176374
0.000198799
0.000198799
0.000167433
0.000185216
0.000178096
0.000200327
0.000198963
0.00018372
0.000191378
0.000196159
0.000211089
0.000208335
0.000219436
0.000216439
0.000189078
0.000193002
0.000210325
0.000206034
0.000218819
0.000210903
0.000203918
0.000214957
0.000209362
0.000186527
0.000186921
0.000203392
0.00020868
0.000208562
0.000186819
0.000195199
0.000191407
0.000219159
0.000216174
0.000214852
0.000212359
0.000192163
0.000188247
0.000218786
0.000210723
0.000215885
0.000217208
0.000210074
0.000212462
0.000215881
0.00018604
0.000194835
0.000210134
0.000218045
0.000217382
0.000194054
0.000191221
0.00019442
0.000214376
0.000211763
0.000216231
0.000217154
0.000188279
0.000194602
0.00021561
0.00022028
0.000217101
0.000226008
0.000217974
0.000217346
0.000221474
0.00019659
0.000206159
0.000219321
0.000226913
0.000223098
0.00019927
0.000194551
0.000186797
0.000217695
0.000218259
0.000212695
0.000217622
0.000194881
0.000191924
0.000218668
0.000228772
0.000210637
0.000208588
0.000222188
0.000217162
0.000210918
0.000205372
0.000183053
0.000223123
0.000208109
0.000208788
0.000184836
0.000185623
0.000183524
0.000210176
0.000214777
0.000205617
0.000210966
0.000190894
0.000188962
0.000207823
0.000201776
0.000202744
0.000192866
0.000209001
0.000211507
0.000206391
0.000179764
0.000169674
0.000206585
0.000193407
0.000203277
0.000186592
0.000185572
0.000200671
0.000206906
0.000211095
0.000221364
0.000219082
0.000189945
0.000197985
0.000203666
0.00019061
0.000221687
0.000216974
0.000210939
0.000219091
0.000222255
0.000170024
0.000196536
0.000207936
0.000217103
0.000222673
0.000202261
0.00020184
0.000201194
0.000223741
0.000220676
0.000230711
0.000224041
0.000198661
0.000193984
0.000224671
0.000225083
0.000233349
0.000237798
0.000224564
0.000222816
0.000224823
0.00019988
0.000213443
0.000224999
0.000236969
0.000229281
0.000195605
0.000196233
0.000173076
0.000222025
0.000215298
0.000195999
0.000195276
0.000189603
0.000172601
0.000227914
0.00024147
0.000198903
0.000217186
0.000215126
0.000195341
0.000195093
0.000213561
0.000189869
0.000220425
0.000217173
0.000197732
0.000172625
0.000171343
0.000169274
0.00019224
0.000192855
0.000185224
0.00018801
0.000171202
0.000174386
0.000193991
0.000206579
0.000186233
0.000191291
0.00019284
0.000188806
0.000188673
0.000185126
0.000170964
0.00019463
0.000191911
0.000188912
0.000174626
0.00017188
0.000195349
0.000187821
0.000194575
0.000216613
0.000220898
0.000178035
0.000199565
0.000186178
0.000189098
0.000213105
0.000195573
0.000196112
0.000221204
0.000219915
0.00016964
0.00017965
0.000192794
0.000196279
0.000216732
0.000197843
0.000198162
0.000207827
0.000223673
0.000226226
0.000233751
0.000233332
0.000201493
0.000207465
0.000220781
0.000205081
0.000232204
0.00022341
0.000224557
0.000232829
0.000231127
0.00018304
0.000198042
0.000221875
0.000222598
0.000229
0.000204063
0.000208063
0.000197437
0.000236255
0.000235093
0.000226991
0.000218473
0.000205645
0.000189667
0.000234617
0.000225939
0.000229393
0.000230656
0.000232384
0.000217361
0.000218836
0.000199072
0.000201213
0.000230525
0.000229429
0.000220725
0.000191327
0.000194113
0.000180469
0.000219575
0.000212037
0.000203041
0.000201071
0.000186782
0.000178604
0.000222022
0.00022823
0.000204769
0.000211562
0.000213667
0.000201337
0.000203711
0.000199192
0.000187091
0.00021575
0.000211615
0.000205222
0.0001815
0.000179403
0.000177176
0.000200493
0.000200152
0.000197209
0.000199871
0.000177943
0.000182172
0.00020188
0.000208233
0.000198289
0.000204059
0.00020263
0.00020095
0.000200822
0.000185855
0.000182736
0.000203889
0.000204708
0.000201562
0.000181402
0.000177767
0.000189102
0.000197112
0.000203778
0.000211965
0.00021793
0.000183846
0.000194156
0.00019762
0.000203416
0.000210574
0.000210791
0.000202991
0.00021847
0.000216294
0.000182465
0.000188999
0.000202346
0.000211895
0.000215253
0.000192151
0.000192358
0.000213904
0.000218554
0.000196885
0.000212799
0.000212091
0.000238185
0.000225821
0.000234249
0.000216739
0.000191672
0.000215883
9.23921e-05
5.00235e-05
9.21705e-05
5.0036e-05
2.36142e-05
2.36185e-05
9.23951e-05
5.00204e-05
9.21838e-05
5.00329e-05
0.000123726
0.00012373
0.00012374
0.000125839
0.000125832
0.000125848
0.000125849
0.000122161
9.39851e-05
0.00013556
0.000140921
0.000121586
9.4277e-05
0.000136434
2.36121e-05
2.36165e-05
0.000122162
0.000135569
9.39881e-05
0.000140925
0.000121584
0.000136445
9.42793e-05
7.38407e-05
7.38402e-05
0.000138545
7.39659e-05
7.39653e-05
9.28684e-05
5.00532e-05
9.26542e-05
5.00659e-05
2.36238e-05
2.36283e-05
9.28714e-05
5.00502e-05
9.26673e-05
5.00629e-05
0.000126564
0.000126574
0.000126578
0.000128776
0.000128779
0.000128782
0.000128791
0.000123485
9.45944e-05
0.000139088
0.000144052
0.000122929
9.48752e-05
0.000139974
2.36217e-05
2.36263e-05
0.000123485
0.000139099
9.4597e-05
0.000144048
0.000122929
0.000139981
9.48762e-05
7.41062e-05
7.41057e-05
0.000140959
7.42266e-05
7.4226e-05
9.33283e-05
5.00834e-05
9.31204e-05
5.00962e-05
2.36337e-05
2.36384e-05
9.33319e-05
5.00803e-05
9.31345e-05
5.00931e-05
0.000129529
0.000129539
0.000129543
0.00013187
0.000131866
0.000131877
0.000131883
0.000124762
9.51782e-05
0.000142616
0.000147119
0.000124224
9.54501e-05
0.000143505
2.36317e-05
2.36364e-05
0.000124762
0.00014263
9.5181e-05
0.000147121
0.000124223
0.000143516
9.54528e-05
7.43611e-05
7.43605e-05
0.000143315
7.44784e-05
7.44777e-05
9.3772e-05
5.01138e-05
9.35724e-05
5.01267e-05
2.3644e-05
2.36487e-05
9.3774e-05
5.01107e-05
9.35852e-05
5.01236e-05
0.000132661
0.000132678
0.000132682
0.00013506
0.000135067
0.000135065
0.000135079
0.000126001
9.57448e-05
0.000146185
0.000150162
0.00012548
9.60055e-05
0.000147077
2.36419e-05
2.36467e-05
0.000126002
0.000146205
9.57481e-05
0.000150163
0.00012548
0.000147092
9.60069e-05
7.46075e-05
7.4607e-05
0.000145629
7.47186e-05
7.47179e-05
9.42003e-05
5.01445e-05
9.40045e-05
5.01575e-05
2.36546e-05
2.36594e-05
9.42042e-05
5.01414e-05
9.40179e-05
5.01544e-05
0.000135869
0.000135873
0.000135877
0.000138393
0.000138375
0.000138385
0.000138394
0.000127195
9.62857e-05
0.000149706
0.000153127
0.000126688
9.65419e-05
0.00015059
2.36525e-05
2.36574e-05
0.000127194
0.00014972
9.62881e-05
0.000153131
0.000126687
0.000150606
9.65436e-05
7.48423e-05
7.48416e-05
0.000147874
7.49534e-05
7.49527e-05
9.46123e-05
5.0175e-05
9.44283e-05
5.01876e-05
2.36652e-05
2.367e-05
9.46141e-05
5.01719e-05
9.44417e-05
5.01845e-05
0.000139235
0.00013924
0.00013925
0.000141785
0.000141798
0.000141806
0.000141812
0.000128363
9.68182e-05
0.000153273
0.000156099
0.000127873
9.70581e-05
0.000154164
2.36632e-05
2.3668e-05
0.00012836
0.00015328
9.68198e-05
0.000156095
0.000127871
0.00015417
9.70581e-05
7.50739e-05
7.50731e-05
0.000150105
7.51741e-05
7.51732e-05
9.49999e-05
5.02054e-05
9.48203e-05
5.02187e-05
2.36761e-05
2.36812e-05
9.50033e-05
5.02025e-05
9.48331e-05
5.02158e-05
0.000142631
0.000142635
0.000142648
0.000145152
0.000145153
0.000145156
0.000145168
0.000129458
9.73084e-05
0.000156744
0.000158895
0.000128993
9.75406e-05
0.000157582
2.36741e-05
2.36792e-05
0.00012946
0.00015675
9.73114e-05
0.000158889
0.000128992
0.000157585
9.75443e-05
7.52822e-05
7.52815e-05
0.000152193
7.53837e-05
7.53831e-05
9.53931e-05
5.02369e-05
9.52127e-05
5.02499e-05
2.36876e-05
2.36926e-05
9.53969e-05
5.02339e-05
9.52276e-05
5.02469e-05
0.000146015
0.000146045
0.000146047
0.000148695
0.000148703
0.00014871
0.000148705
0.000130562
9.77982e-05
0.00016014
0.000161713
0.000130088
9.80332e-05
0.000161003
2.36853e-05
2.36904e-05
0.000130564
0.000160177
9.78035e-05
0.000161731
0.000130091
0.000161043
9.80346e-05
7.54977e-05
7.54974e-05
0.000154314
7.55975e-05
7.55966e-05
9.57603e-05
5.02673e-05
9.55945e-05
5.02798e-05
2.36986e-05
2.37036e-05
9.57587e-05
5.02643e-05
9.56054e-05
5.02768e-05
0.000149622
0.000149598
0.000149617
0.000152279
0.00015226
0.000152271
0.00015229
0.000131616
9.82762e-05
0.00016362
0.000164506
0.000131175
9.84874e-05
0.000164462
2.36964e-05
2.37015e-05
0.000131608
0.000163598
9.82729e-05
0.000164488
0.000131169
0.000164447
9.84854e-05
7.57007e-05
7.56996e-05
0.000156368
7.579e-05
7.57893e-05
9.61001e-05
5.0297e-05
9.5941e-05
5.03099e-05
2.37098e-05
2.3715e-05
9.61057e-05
5.02942e-05
9.59537e-05
5.03071e-05
0.000153133
0.000153146
0.000153138
0.000155757
0.000155761
0.000155766
0.000155769
0.000132606
9.87094e-05
0.000166892
0.000167135
0.000132181
9.89193e-05
0.000167704
2.37077e-05
2.37128e-05
0.00013261
0.000166901
9.87166e-05
0.000167133
0.000132182
0.000167701
9.89247e-05
7.58853e-05
7.58845e-05
0.00015829
7.59744e-05
7.59729e-05
9.64448e-05
5.03279e-05
9.62841e-05
5.03409e-05
2.37213e-05
2.37265e-05
9.6449e-05
5.03249e-05
9.63009e-05
5.03378e-05
0.000156615
0.000156651
0.000156653
0.000159277
0.000159299
0.000159314
0.000159307
0.000133597
9.91418e-05
0.000170095
0.000169716
0.000133174
9.93453e-05
0.000170897
2.37191e-05
2.37243e-05
0.000133601
0.000170124
9.91446e-05
0.000169734
0.000133173
0.00017093
9.93463e-05
7.60712e-05
7.60705e-05
0.000160212
7.61576e-05
7.6158e-05
9.678e-05
5.03587e-05
9.66243e-05
5.03712e-05
2.37328e-05
2.37379e-05
9.67777e-05
5.03555e-05
9.66335e-05
5.03681e-05
0.000160214
0.000160187
0.000160201
0.00016282
0.000162827
0.000162812
0.000162862
0.000134558
9.95631e-05
0.000173309
0.000172288
0.000134147
9.97601e-05
0.000174087
2.37306e-05
2.37358e-05
0.000134553
0.000173301
9.95604e-05
0.000172252
0.000134146
0.000174069
9.97553e-05
7.62484e-05
7.62481e-05
0.000162078
7.63349e-05
7.63332e-05
9.70883e-05
5.03877e-05
9.69466e-05
5.03992e-05
2.3744e-05
2.3749e-05
9.70945e-05
5.03848e-05
9.69603e-05
5.03963e-05
0.000163726
0.000163741
0.00016378
0.000166591
0.000166525
0.000166544
0.000166503
0.000135468
9.99589e-05
0.000176423
0.000174812
0.000135082
0.000100139
0.000177226
2.37419e-05
2.37469e-05
0.000135472
0.000176436
9.99654e-05
0.000174837
0.000135074
0.00017725
0.000100149
7.64237e-05
7.64218e-05
0.000163923
7.64927e-05
7.64913e-05
9.73525e-05
5.04157e-05
9.72273e-05
5.04293e-05
2.37554e-05
2.37609e-05
9.73588e-05
5.04128e-05
9.72426e-05
5.04262e-05
0.000167341
0.000167335
0.000167282
0.000169513
0.000169547
0.000169648
0.000169665
0.000136296
0.000100314
0.000179401
0.000177005
0.000135945
0.00010048
0.000180032
2.37531e-05
2.37586e-05
0.000136291
0.000179378
0.000100316
0.000177
0.00013594
0.000180012
0.000100478
7.65565e-05
7.65556e-05
0.000165478
7.66352e-05
7.66349e-05
9.7705e-05
5.04488e-05
9.75288e-05
5.04609e-05
2.37677e-05
2.37724e-05
9.76968e-05
5.04453e-05
9.75402e-05
5.04574e-05
0.000170443
0.000170586
0.000170602
0.000173482
0.000173615
0.000173307
0.000173385
0.000137228
0.000100696
0.000182209
0.000179561
0.000136799
0.000100907
0.000183077
2.37653e-05
2.37703e-05
0.000137231
0.000182285
0.000100694
0.00017949
0.000136797
0.000183073
0.000100899
7.67397e-05
7.67397e-05
0.000167345
7.68228e-05
7.68222e-05
9.79242e-05
5.04743e-05
9.78444e-05
5.0485e-05
2.37777e-05
2.37827e-05
9.79378e-05
5.04716e-05
9.7842e-05
5.04827e-05
0.000174432
0.000174153
0.000174277
0.000176749
0.000176513
0.000176998
0.000176851
0.000137978
0.000101053
0.000185318
0.000181649
0.000137698
0.000101161
0.000185882
2.3776e-05
2.37807e-05
0.000138013
0.000185243
0.000101065
0.000181832
0.000137698
0.000186009
0.000101207
7.68792e-05
7.68802e-05
0.000168952
7.69362e-05
7.69369e-05
9.82015e-05
5.05017e-05
9.80454e-05
5.05123e-05
2.37893e-05
2.37936e-05
9.81983e-05
5.04989e-05
9.80825e-05
5.05092e-05
0.000177505
0.00017784
0.000177628
0.00018003
0.000180154
0.000179721
0.000179931
0.000138789
0.000101355
0.000187937
0.000184025
0.000138388
0.000101555
0.000188716
2.37863e-05
2.3791e-05
0.000138712
0.000188059
0.000101361
0.000183804
0.000138413
0.00018856
0.000101472
7.70057e-05
7.69991e-05
0.0001704
7.70652e-05
7.70538e-05
9.83572e-05
5.05242e-05
9.8306e-05
5.05349e-05
2.37989e-05
2.38045e-05
9.83867e-05
5.05215e-05
9.83023e-05
5.05317e-05
0.000180714
0.000180465
0.000180728
0.000183113
0.000183119
0.000183281
0.00018314
0.000139395
0.00010164
0.000190488
0.000185789
0.000139179
0.000101716
0.000191076
2.37975e-05
2.38027e-05
0.000139396
0.000190284
0.000101595
0.000185822
0.000139053
0.000191034
0.000101779
7.71188e-05
7.7118e-05
0.000171835
7.71552e-05
7.71639e-05
9.8592e-05
5.05556e-05
9.8453e-05
5.05753e-05
2.38127e-05
2.38193e-05
9.85502e-05
5.05512e-05
9.84762e-05
5.0571e-05
0.000184003
0.000184049
0.000183832
0.000185204
0.000185437
0.000185562
0.000185516
0.000139979
0.000101855
0.000192957
0.000187499
0.000139696
0.000101995
0.000193323
2.38097e-05
2.38169e-05
0.000140043
0.000193019
0.000101913
0.000187583
0.000139809
0.000193454
0.000101987
7.71543e-05
7.71611e-05
0.000172838
7.72431e-05
7.72449e-05
9.90716e-05
5.06012e-05
9.88204e-05
5.06089e-05
2.3827e-05
2.38303e-05
9.90834e-05
5.05988e-05
9.88039e-05
5.06071e-05
0.000186017
0.00018626
0.000186272
0.000190582
0.000190332
0.000190014
0.000190237
0.000141099
0.000102261
0.000194737
0.000189871
0.000140441
0.000102592
0.00019581
2.38251e-05
2.38285e-05
0.000141092
0.000194986
0.000102262
0.000189843
0.00014046
0.000195903
0.000102585
7.74782e-05
7.74679e-05
0.000175078
7.76177e-05
7.76032e-05
9.91743e-05
5.06063e-05
9.9192e-05
5.0604e-05
2.38314e-05
2.38334e-05
9.92232e-05
5.06042e-05
9.92185e-05
5.06007e-05
0.000191982
0.00019155
0.000191805
0.000194581
0.000194097
0.000194754
0.000194712
0.000141855
0.000102749
0.000199601
0.000193158
0.000141713
0.000102708
0.000200406
2.38291e-05
2.38299e-05
0.000141829
0.000199357
0.00010276
0.000193174
0.000141666
0.000200266
0.000102795
7.76594e-05
7.76518e-05
0.000177028
7.75506e-05
7.75455e-05
9.8942e-05
5.06145e-05
9.8941e-05
5.06339e-05
2.38408e-05
2.38478e-05
9.89317e-05
5.06078e-05
9.89831e-05
5.06255e-05
0.000194096
0.000194975
0.000194778
0.000193682
0.000195003
0.000193899
0.000193437
0.000141493
0.000102525
0.000200773
0.000193112
0.000141619
0.00010261
0.000200564
2.38343e-05
2.38433e-05
0.000141423
0.000201094
0.000102474
0.000193248
0.000141614
0.000200881
0.000102378
7.73146e-05
7.73145e-05
0.000176279
7.72572e-05
7.72555e-05
9.94612e-05
5.06652e-05
9.92885e-05
5.0687e-05
2.38544e-05
2.38618e-05
9.93606e-05
5.06607e-05
9.91149e-05
5.069e-05
0.000195562
0.000193459
0.000193125
0.000196178
0.00019597
0.000196049
0.000197049
0.000142421
0.000102832
0.000201148
0.000194106
0.000141872
0.00010289
0.000201601
2.38597e-05
2.38711e-05
0.000142361
0.000199638
0.00010255
0.000192542
0.000141505
0.000199929
0.000103049
7.75321e-05
7.75765e-05
0.000177364
7.78348e-05
7.7873e-05
9.98523e-05
5.07265e-05
9.95063e-05
5.07483e-05
2.38778e-05
2.38861e-05
0.000100159
5.07358e-05
9.96982e-05
5.07513e-05
0.00019634
0.00019807
0.000198962
0.00020433
0.000202467
0.000205438
0.00020497
0.000143707
0.000103042
0.000203558
0.00019654
0.00014299
0.000103546
0.000205061
2.38801e-05
2.38794e-05
0.000144474
0.000205334
0.000103671
0.000199137
0.00014359
0.000207333
0.000104181
7.82463e-05
7.82707e-05
0.000181924
7.84707e-05
7.84673e-05
0.00010116
5.07204e-05
0.00010058
5.06282e-05
2.3876e-05
2.38504e-05
0.000101058
5.06983e-05
0.000100844
5.05998e-05
0.000205232
0.000207021
0.000206383
0.000209378
0.000209295
0.000209392
0.000207944
0.000146088
0.000104427
0.000210249
0.00020197
0.000144995
0.000105165
0.00021105
2.38455e-05
2.38156e-05
0.000145818
0.000210774
0.000104952
0.000202659
0.000145729
0.00021129
0.000104506
7.85748e-05
7.83541e-05
0.00018436
7.80067e-05
7.77784e-05
9.7085e-05
5.04491e-05
9.90563e-05
5.04211e-05
2.37921e-05
2.37882e-05
9.65853e-05
5.04424e-05
9.82746e-05
5.04278e-05
0.000210928
0.000209024
0.000207859
0.00019846
0.000201574
0.000196878
0.000197832
0.000140666
0.000103562
0.000213964
0.000202753
0.00014412
0.000101227
0.00021218
2.37928e-05
2.38178e-05
0.000138861
0.000210261
0.000101533
0.000195042
0.000141675
0.000205761
9.98422e-05
7.63762e-05
7.62707e-05
0.000175572
7.54936e-05
7.55309e-05
9.49551e-05
5.06297e-05
9.46841e-05
5.09283e-05
2.38667e-05
2.39697e-05
9.65374e-05
5.06683e-05
9.46513e-05
5.09572e-05
0.000196434
0.000194185
0.000195347
0.000183736
0.000184502
0.000184356
0.000186225
0.000133141
9.80412e-05
0.000198236
0.000186323
0.000135644
9.67686e-05
0.000195992
2.39275e-05
2.40157e-05
0.00013648
0.000197449
9.78996e-05
0.000185092
0.000135158
0.000195192
0.000100171
7.49832e-05
7.53611e-05
0.000167892
7.65093e-05
7.67851e-05
0.000105494
5.13957e-05
0.000101298
5.15118e-05
2.41155e-05
2.41471e-05
0.000105993
5.13755e-05
0.00010242
5.14678e-05
0.000179798
0.000185609
0.000185773
0.000227597
0.000221612
0.000230036
0.000227147
0.000151668
0.000103317
0.000187522
0.000194555
0.000142636
0.000108567
0.000199432
2.40971e-05
2.40915e-05
0.000154197
0.000198432
0.000106611
0.000208198
0.000146662
0.000212949
0.000110576
8.0297e-05
8.0088e-05
0.000192131
8.23291e-05
8.20108e-05
0.00011083
5.12724e-05
0.000110047
5.08693e-05
2.40558e-05
2.39234e-05
0.00010866
5.12137e-05
0.000109612
5.08197e-05
0.000239771
0.00024156
0.00023931
0.000269058
0.000271645
0.000262372
0.000261047
0.000168393
0.000114988
0.000244526
0.000239789
0.000163164
0.000117736
0.000251816
2.39503e-05
2.38364e-05
0.000165149
0.000243436
0.000114636
0.00023583
0.00016279
0.000248165
0.000113297
8.4095e-05
8.39807e-05
0.000215109
8.18017e-05
8.19019e-05
9.52736e-05
5.02445e-05
0.00010109
5.00973e-05
2.37262e-05
2.3695e-05
9.46421e-05
5.02219e-05
9.96461e-05
5.00967e-05
0.000281531
0.000267766
0.00026731
0.000231903
0.000241984
0.000224656
0.000228906
0.000142451
0.000107976
0.000273134
0.000241791
0.000155397
0.000100675
0.000264491
2.37269e-05
2.37329e-05
0.000138993
0.000260215
0.000103502
0.000220232
0.000149689
0.000244297
9.84723e-05
7.63627e-05
7.6478e-05
0.000188447
7.42147e-05
7.42685e-05
9.09907e-05
5.02483e-05
9.06775e-05
5.0521e-05
2.37659e-05
2.38569e-05
9.26023e-05
5.02816e-05
9.11636e-05
5.05446e-05
0.000216232
0.000207474
0.000211137
0.000174936
0.0001758
0.000182476
0.000183711
0.000127051
9.43036e-05
0.000200446
0.000178012
0.000129434
9.35598e-05
0.00019013
2.38266e-05
2.38946e-05
0.000130483
0.000198326
9.51972e-05
0.000181522
0.000130254
0.000192112
9.71648e-05
7.34351e-05
7.35761e-05
0.000162594
7.49928e-05
7.51466e-05
0.000100434
5.09402e-05
9.6999e-05
5.10704e-05
2.39655e-05
2.39933e-05
0.000100553
5.09234e-05
9.78625e-05
5.10456e-05
0.000169386
0.000178623
0.00017954
0.000185024
0.000179217
0.00018714
0.00018395
0.000142448
9.93907e-05
0.000174853
0.000174194
0.000136094
0.000103077
0.00017672
2.39493e-05
2.39574e-05
0.000143754
0.000182854
0.000101881
0.000186233
0.000139218
0.000186959
0.000103919
7.73937e-05
7.71207e-05
0.000175223
7.80764e-05
7.77047e-05
0.000103084
5.1078e-05
0.000103131
5.10181e-05
2.39878e-05
2.39792e-05
0.000102133
5.10708e-05
0.000102334
5.10303e-05
0.00019598
0.000197836
0.000194502
0.000232192
0.000226818
0.000220162
0.000218205
0.00014882
0.000106189
0.000212741
0.000211661
0.000148302
0.000106408
0.000219681
2.39597e-05
2.39787e-05
0.000146902
0.00021173
0.000104704
0.000207548
0.000146868
0.00021631
0.000104183
7.79095e-05
7.78945e-05
0.000186737
7.75939e-05
7.7729e-05
0.000100597
5.09803e-05
0.000101043
5.10043e-05
2.39871e-05