/*--------------------------------*- C++ -*----------------------------------*\
| =========                 |                                                 |
| \\      /  F ield         | OpenFOAM: The Open Source CFD Toolbox           |
|  \\    /   O peration     | Version:  v2012                                 |
|   \\  /    A nd           | Website:  www.openfoam.com                      |
|    \\/     M anipulation  |                                                 |
\*---------------------------------------------------------------------------*/
FoamFile
{
    version     2.0;
    format      ascii;
    class       volScalarField;
    location    "750";
    object      p;
}
// * * * * * * * * * * * * * * * * * * * * * * * * * * * * * * * * * * * * * //

dimensions      [0 2 -2 0 0 0 0];


internalField   nonuniform List<scalar> 
85864
(
0.00167319
0.00167311
0.00167311
0.00167519
0.00163722
0.00163713
0.00163713
0.0016392
0.00160132
0.00160122
0.00160122
0.00160328
0.00156548
0.00156537
0.00156537
0.00156743
0.0015297
0.00152959
0.00152959
0.00153164
0.00149397
0.00149386
0.00149386
0.0014959
0.0014583
0.00145818
0.00145818
0.00146022
0.00142268
0.00142256
0.00142256
0.00142459
0.0013871
0.00138697
0.00138697
0.001389
0.00135155
0.00135142
0.00135142
0.00135345
0.00131604
0.00131591
0.00131591
0.00131793
0.00128055
0.00128043
0.00128043
0.00128245
0.00124509
0.00124497
0.00124497
0.00124698
0.00120964
0.00120953
0.00120953
0.00121155
0.00117425
0.00117412
0.00117412
0.00117613
0.00113881
0.00113871
0.00113871
0.00114071
0.00110342
0.00110331
0.0011033
0.00110531
0.001068
0.0010679
0.00106792
0.00106991
0.00103264
0.00103255
0.00103254
0.00103456
0.000997364
0.000997245
0.000997243
0.000999232
0.000961857
0.000961734
0.000961737
0.000963735
0.000926373
0.000926325
0.000926311
0.000928345
0.000891095
0.000890979
0.000891093
0.00089309
0.000855874
0.000855761
0.000855649
0.000857602
0.000819807
0.000819804
0.000819646
0.000821749
0.000783323
0.000783162
0.000783602
0.000785654
0.000749603
0.000749545
0.000749793
0.000751625
0.000717555
0.000717389
0.000716474
0.000718383
0.000680222
0.000679623
0.000679774
0.000681646
0.000640455
0.000640094
0.000641033
0.000643145
0.000604651
0.000605823
0.000605494
0.000607977
0.000570673
0.000571016
0.000569989
0.000572324
0.000535803
0.00053495
0.000535511
0.000537075
0.000502437
0.000502239
0.00050282
0.000504472
0.000467751
0.000467743
0.000467227
0.000469345
0.0004297
0.000429713
0.000429197
0.000431622
0.000392781
0.000392917
0.000393317
0.000395406
0.000357535
0.000357243
0.000357774
0.000359292
0.000320206
0.000320052
0.000319695
0.000321775
0.000282178
0.000282823
0.000282053
0.000284916
0.000247241
0.000247603
0.000247621
0.000249826
0.0002138
0.000213177
0.000213782
0.000215274
0.0001791
0.000178372
0.000178695
0.000180226
0.000142449
0.000142444
0.000142134
0.000144308
0.000104469
0.000105242
0.000104709
0.000107365
6.80378e-05
6.80553e-05
6.83149e-05
7.02686e-05
3.32915e-05
3.24726e-05
3.28381e-05
3.44029e-05
5.78261e-06
6.51618e-06
6.62823e-06
4.75247e-06
0.00167518
0.00164402
0.00167311
0.00167311
0.00164612
0.00164612
0.00167519
0.00164402
0.00167311
0.00167311
0.00164612
0.00164612
0.00167311
0.00164612
0.00164612
0.00167519
0.00164402
0.00167311
0.00164612
0.00164612
0.00164402
0.0016392
0.0016081
0.00163713
0.00163713
0.00161019
0.00161019
0.0016392
0.0016081
0.00163713
0.00163713
0.00161019
0.00161019
0.00163713
0.00161019
0.00161019
0.0016392
0.0016081
0.00163713
0.00161019
0.00161019
0.0016081
0.00160328
0.00157224
0.00160122
0.00160122
0.00157433
0.00157433
0.00160328
0.00157224
0.00160122
0.00160122
0.00157433
0.00157433
0.00160122
0.00157433
0.00157433
0.00160328
0.00157224
0.00160122
0.00157433
0.00157433
0.00157224
0.00156743
0.00153645
0.00156537
0.00156537
0.00153853
0.00153853
0.00156743
0.00153645
0.00156537
0.00156537
0.00153853
0.00153853
0.00156537
0.00153853
0.00153853
0.00156743
0.00153644
0.00156537
0.00153853
0.00153853
0.00153644
0.00153164
0.00150071
0.00152959
0.00152959
0.00150279
0.00150279
0.00153164
0.00150071
0.00152959
0.00152959
0.00150279
0.00150279
0.00152959
0.00150279
0.00150279
0.00153164
0.00150071
0.00152959
0.00150279
0.00150279
0.00150071
0.0014959
0.00146502
0.00149386
0.00149386
0.0014671
0.0014671
0.0014959
0.00146502
0.00149386
0.00149386
0.0014671
0.0014671
0.00149386
0.0014671
0.0014671
0.0014959
0.00146502
0.00149386
0.0014671
0.0014671
0.00146502
0.00146022
0.00142939
0.00145818
0.00145818
0.00143146
0.00143146
0.00146022
0.00142939
0.00145818
0.00145818
0.00143146
0.00143146
0.00145818
0.00143146
0.00143146
0.00146022
0.00142939
0.00145818
0.00143146
0.00143146
0.00142939
0.00142459
0.00139379
0.00142256
0.00142256
0.00139586
0.00139586
0.00142459
0.00139379
0.00142256
0.00142256
0.00139586
0.00139586
0.00142256
0.00139586
0.00139586
0.00142459
0.00139379
0.00142256
0.00139586
0.00139586
0.00139379
0.001389
0.00135824
0.00138697
0.00138697
0.00136031
0.00136031
0.001389
0.00135824
0.00138697
0.00138697
0.00136031
0.00136031
0.00138697
0.00136031
0.00136031
0.001389
0.00135824
0.00138697
0.00136031
0.00136031
0.00135824
0.00135345
0.00132272
0.00135142
0.00135142
0.00132479
0.00132479
0.00135345
0.00132272
0.00135142
0.00135142
0.00132478
0.00132478
0.00135142
0.00132478
0.00132478
0.00135345
0.00132272
0.00135142
0.00132478
0.00132478
0.00132272
0.00131793
0.00128724
0.00131591
0.00131591
0.0012893
0.00128929
0.00131793
0.00128724
0.00131591
0.00131591
0.0012893
0.0012893
0.00131591
0.0012893
0.0012893
0.00131793
0.00128724
0.00131591
0.0012893
0.0012893
0.00128724
0.00128245
0.00125177
0.00128043
0.00128043
0.00125383
0.00125383
0.00128245
0.00125177
0.00128043
0.00128043
0.00125383
0.00125383
0.00128043
0.00125383
0.00125383
0.00128245
0.00125177
0.00128043
0.00125383
0.00125383
0.00125177
0.00124698
0.00121633
0.00124497
0.00124497
0.00121838
0.00121839
0.00124698
0.00121633
0.00124497
0.00124497
0.00121838
0.00121838
0.00124497
0.00121839
0.00121839
0.00124698
0.00121633
0.00124497
0.00121839
0.00121839
0.00121633
0.00121154
0.00118092
0.00120953
0.00120953
0.00118298
0.00118298
0.00121155
0.00118092
0.00120953
0.00120953
0.00118298
0.00118298
0.00120953
0.00118298
0.00118298
0.00121155
0.00118092
0.00120953
0.00118298
0.00118297
0.00118092
0.00117613
0.0011455
0.00117413
0.00117413
0.00114755
0.00114755
0.00117613
0.0011455
0.00117413
0.00117412
0.00114756
0.00114756
0.00117412
0.00114756
0.00114756
0.00117613
0.00114551
0.00117412
0.00114756
0.00114756
0.00114551
0.00114071
0.00111011
0.0011387
0.0011387
0.00111216
0.00111216
0.00114072
0.00111011
0.00113871
0.00113871
0.00111216
0.00111215
0.00113871
0.00111216
0.00111216
0.00114072
0.0011101
0.00113871
0.00111215
0.00111215
0.00111011
0.00110531
0.0010747
0.00110331
0.00110331
0.00107674
0.00107675
0.00110531
0.0010747
0.00110331
0.0011033
0.00107675
0.00107676
0.00110331
0.00107675
0.00107675
0.00110531
0.00107471
0.00110331
0.00107676
0.00107676
0.0010747
0.00106991
0.00103935
0.0010679
0.0010679
0.00104139
0.00104138
0.00106991
0.00103935
0.0010679
0.00106791
0.00104139
0.00104137
0.0010679
0.00104138
0.00104138
0.00106992
0.00103934
0.00106791
0.00104137
0.00104138
0.00103934
0.00103457
0.00100403
0.00103256
0.00103255
0.00100609
0.00100609
0.00103456
0.00100403
0.00103256
0.00103254
0.00100609
0.00100609
0.00103255
0.00100609
0.00100608
0.00103455
0.00100403
0.00103255
0.00100608
0.00100608
0.00100403
0.000999233
0.000968533
0.000997237
0.000997243
0.000970591
0.0009706
0.000999235
0.00096854
0.000997237
0.000997245
0.000970599
0.000970612
0.000997238
0.000970607
0.000970606
0.000999237
0.000968547
0.000997233
0.00097062
0.000970614
0.000968545
0.000963726
0.000933148
0.000961722
0.000961729
0.000935183
0.000935186
0.000963731
0.000933152
0.000961728
0.000961733
0.000935165
0.000935145
0.000961731
0.000935174
0.000935164
0.000963735
0.000933118
0.000961736
0.000935142
0.000935154
0.000933133
0.000928358
0.000897836
0.000926348
0.000926335
0.000899843
0.000899793
0.000928354
0.000897775
0.000926332
0.000926312
0.000899865
0.00089988
0.000926335
0.000899808
0.000899887
0.000928329
0.000897889
0.000926328
0.000899891
0.000899908
0.000897885
0.00089304
0.000862492
0.000891011
0.000890961
0.000864562
0.000864583
0.000892986
0.000862527
0.000891042
0.000891082
0.000864564
0.000864574
0.000891061
0.000864577
0.000864503
0.000893111
0.000862464
0.00089109
0.000864552
0.000864496
0.000862419
0.000857688
0.000826714
0.000855725
0.000855782
0.000828841
0.000828924
0.000857738
0.000826792
0.000855704
0.00085568
0.000828787
0.000828714
0.000855629
0.000828904
0.000828792
0.000857634
0.000826611
0.0008556
0.000828699
0.000828743
0.000826668
0.000821786
0.000790181
0.000819759
0.00081981
0.000792199
0.00079223
0.000821852
0.000790107
0.000819712
0.000819649
0.000792244
0.000792334
0.000819753
0.000792235
0.000792436
0.000821691
0.000790408
0.000819701
0.000792409
0.000792498
0.000790472
0.000785364
0.000756101
0.000783237
0.000783102
0.000757819
0.000757681
0.000785193
0.00075591
0.000783339
0.000783522
0.000757928
0.000758053
0.000783513
0.00075768
0.00075781
0.000785644
0.000756266
0.000783628
0.000758041
0.000757909
0.000756086
0.000751669
0.000723529
0.000749658
0.000749578
0.000725778
0.000725918
0.000751489
0.000723882
0.000749731
0.000749816
0.000725585
0.000725327
0.000749565
0.000725818
0.00072543
0.000751799
0.000723025
0.000749642
0.000725236
0.00072523
0.000723132
0.000718733
0.000686666
0.000717162
0.000717459
0.000689148
0.000689233
0.000719174
0.000686751
0.000716926
0.00071656
0.000689145
0.00068907
0.000716854
0.000689269
0.000689251
0.000718222
0.000686669
0.000716603
0.000689117
0.000689251
0.000686782
0.000681501
0.000647676
0.000679602
0.000679573
0.000649795
0.000649659
0.000681538
0.00064735
0.000679653
0.00067971
0.00065001
0.000650336
0.000679776
0.000649748
0.000650188
0.000681578
0.000648289
0.000679845
0.000650397
0.000650376
0.000648143
0.00064266
0.000612874
0.000640241
0.000640008
0.000614319
0.000614296
0.000642269
0.000612864
0.000640476
0.000640907
0.000614373
0.000614427
0.000640677
0.000614284
0.000614299
0.000643311
0.000612834
0.000640921
0.000614405
0.000614333
0.000612773
0.000608182
0.000578011
0.000605837
0.000605908
0.000580055
0.000580123
0.000608205
0.000578167
0.000605751
0.000605587
0.000579724
0.000579088
0.000605574
0.000579895
0.000579262
0.000607997
0.000577045
0.000605473
0.000578851
0.000578954
0.000577203
0.000573067
0.000541241
0.000571122
0.000571195
0.000543478
0.00054354
0.000573248
0.000541286
0.00057083
0.000570183
0.000543556
0.000543642
0.0005704
0.000543649
0.000543815
0.000572139
0.000541515
0.000570113
0.000543824
0.000543955
0.000541633
0.000536566
0.000508369
0.000534727
0.000534761
0.000510205
0.000510179
0.000536592
0.000508303
0.00053491
0.000535285
0.00051038
0.0005109
0.000535363
0.00051031
0.000510823
0.000536988
0.000509017
0.000535589
0.000511038
0.000511029
0.000508946
0.000504022
0.000474785
0.000502212
0.000502177
0.000476939
0.000476928
0.000503956
0.000474806
0.000502327
0.000502721
0.000476836
0.000476641
0.000502584
0.000476795
0.000476494
0.000504571
0.000474471
0.000502724
0.000476496
0.000476358
0.000474332
0.000469822
0.000436979
0.000467904
0.000467918
0.000439312
0.000439356
0.000469862
0.000437123
0.000467737
0.000467405
0.000439167
0.000438823
0.000467317
0.000439299
0.000439023
0.00046945
0.000436443
0.000467163
0.000438736
0.000438868
0.000436721
0.000431703
0.000399891
0.000429564
0.000429704
0.000401693
0.000401694
0.0004319
0.000399865
0.000429463
0.000429159
0.000401852
0.000402016
0.000429565
0.000401838
0.000402179
0.00043122
0.000400187
0.000429492
0.000402172
0.000402321
0.000400301
0.000395063
0.000364579
0.000392817
0.000392806
0.000366533
0.000366337
0.000395022
0.000364265
0.000392974
0.000393202
0.000366664
0.000366817
0.000393172
0.000366269
0.000366337
0.000395361
0.000364866
0.000393328
0.00036676
0.000366477
0.000364301
0.000359622
0.000327125
0.000357553
0.000357353
0.000329519
0.000329539
0.000359324
0.000327197
0.000357646
0.000357878
0.000329389
0.000329292
0.000357186
0.000329488
0.000329358
0.000359976
0.000326976
0.000357286
0.00032925
0.000329249
0.000326956
0.000321951
0.000289434
0.000320036
0.000320076
0.000291514
0.000291734
0.000322029
0.000289879
0.00031989
0.000319715
0.000291338
0.000291308
0.000319918
0.000291825
0.000291776
0.000321819
0.000289167
0.00031981
0.00029139
0.000291626
0.000289778
0.000284588
0.000254531
0.00028248
0.00028273
0.000256293
0.000256335
0.000285021
0.000254543
0.000282259
0.000281971
0.000256265
0.000256037
0.000282811
0.000256332
0.000256277
0.000284097
0.000254363
0.000282599
0.000256035
0.000256288
0.000254528
0.000249842
0.000220341
0.000247618
0.000247632
0.000222154
0.000221994
0.000249812
0.000219886
0.00024773
0.000247647
0.000222341
0.000222277
0.000247573
0.000221897
0.000221901
0.000249725
0.000220326
0.000247635
0.000222208
0.000222115
0.000220012
0.000215635
0.000185024
0.000213576
0.000213294
0.000187219
0.000187041
0.000215104
0.000184843
0.00021384
0.000213859
0.00018736
0.000187759
0.000213228
0.00018704
0.000187145
0.000215732
0.000185364
0.000213524
0.000187748
0.00018725
0.000184967
0.000180221
0.000149163
0.000178419
0.000178343
0.000151487
0.000151596
0.000180123
0.000149332
0.000178432
0.000178668
0.000151362
0.000151293
0.000178498
0.000151659
0.000151643
0.000180476
0.000149184
0.00017846
0.000151361
0.000151527
0.000149326
0.000144077
0.00011235
0.000142197
0.000142373
0.000114324
0.000114563
0.000144319
0.000112644
0.000142074
0.000142063
0.000114133
0.000113944
0.000142416
0.000114607
0.000114497
0.000144169
0.000111979
0.000142289
0.000113986
0.000114319
0.000112473
0.000107289
7.54699e-05
0.000105097
0.000105231
7.73904e-05
7.72863e-05
0.000107517
7.53286e-05
0.000104947
0.000104699
7.74529e-05
7.74194e-05
0.000105134
7.72245e-05
7.7219e-05
0.00010694
7.54348e-05
0.000105042
7.73524e-05
7.72668e-05
7.52975e-05
7.04351e-05
3.94232e-05
6.82639e-05
6.81122e-05
4.13349e-05
4.11772e-05
7.02952e-05
3.90897e-05
6.8357e-05
6.83801e-05
4.14485e-05
4.14948e-05
6.80776e-05
4.11355e-05
4.12395e-05
7.04224e-05
3.94653e-05
6.81599e-05
4.14729e-05
4.13706e-05
3.92772e-05
3.4576e-05
7.76646e-06
3.26835e-05
3.25037e-05
1.07453e-05
1.06417e-05
3.42092e-05
7.69474e-06
3.28118e-05
3.28492e-05
1.08245e-05
1.09107e-05
3.26054e-05
1.06526e-05
1.07216e-05
3.46158e-05
7.87415e-06
3.2752e-05
1.09062e-05
1.07929e-05
7.77786e-06
4.7125e-06
6.48366e-06
6.43015e-06
4.70803e-06
6.50269e-06
6.55163e-06
5.70085e-06
5.86343e-06
5.76946e-06
6.53072e-06
4.78897e-06
6.53917e-06
0.00166173
0.00167519
0.0016752
0.00166171
0.00167519
0.00166171
0.00166173
0.00167519
0.0016752
0.00166171
0.00167319
0.00167319
0.00167319
0.00164621
0.00164621
0.00164621
0.00164621
0.00166184
0.00167518
0.00167317
0.00166411
0.00167519
0.00166177
0.00166417
0.00167519
0.00166171
0.00166184
0.00167317
0.00167518
0.00166411
0.00167519
0.00166417
0.00166177
0.0016752
0.0016752
0.00166201
0.00166172
0.00166172
0.00162578
0.00163921
0.00163922
0.00162576
0.00163921
0.00162576
0.00162578
0.00163921
0.00163922
0.00162576
0.00163722
0.00163722
0.00163722
0.00161029
0.00161029
0.00161029
0.00161029
0.00162588
0.0016392
0.00163719
0.00162814
0.00163921
0.00162582
0.00162821
0.00163921
0.00162576
0.00162588
0.00163719
0.0016392
0.00162815
0.00163921
0.00162821
0.00162582
0.00163922
0.00163922
0.00162605
0.00162577
0.00162577
0.00158989
0.0016033
0.00160331
0.00158988
0.0016033
0.00158988
0.00158989
0.0016033
0.00160331
0.00158988
0.00160132
0.00160132
0.00160132
0.00157443
0.00157443
0.00157443
0.00157443
0.00159
0.00160329
0.00160128
0.00159225
0.0016033
0.00158993
0.00159231
0.0016033
0.00158988
0.00159
0.00160128
0.00160329
0.00159225
0.0016033
0.00159231
0.00158993
0.00160331
0.00160331
0.00159016
0.00158988
0.00158988
0.00155408
0.00156746
0.00156747
0.00155406
0.00156746
0.00155407
0.00155408
0.00156746
0.00156747
0.00155406
0.00156548
0.00156548
0.00156548
0.00153864
0.00153864
0.00153864
0.00153864
0.00155417
0.00156744
0.00156543
0.00155642
0.00156745
0.00155411
0.00155648
0.00156746
0.00155407
0.00155417
0.00156543
0.00156744
0.00155642
0.00156745
0.00155648
0.00155411
0.00156747
0.00156747
0.00155433
0.00155407
0.00155407
0.00151832
0.00153168
0.00153169
0.0015183
0.00153168
0.00151831
0.00151832
0.00153168
0.00153169
0.0015183
0.0015297
0.0015297
0.0015297
0.0015029
0.0015029
0.0015029
0.0015029
0.00151841
0.00153166
0.00152965
0.00152065
0.00153167
0.00151835
0.00152071
0.00153168
0.00151831
0.00151841
0.00152965
0.00153166
0.00152065
0.00153167
0.00152071
0.00151835
0.00153169
0.00153169
0.00151857
0.00151831
0.00151831
0.00148261
0.00149596
0.00149596
0.0014826
0.00149596
0.0014826
0.00148261
0.00149596
0.00149596
0.0014826
0.00149398
0.00149398
0.00149398
0.00146721
0.00146721
0.00146721
0.00146721
0.0014827
0.00149594
0.00149392
0.00148493
0.00149594
0.00148265
0.00148499
0.00149596
0.0014826
0.0014827
0.00149392
0.00149594
0.00148494
0.00149594
0.00148499
0.00148265
0.00149596
0.00149596
0.00148286
0.0014826
0.0014826
0.00144696
0.00146029
0.00146029
0.00144695
0.00146029
0.00144695
0.00144696
0.00146029
0.00146029
0.00144695
0.0014583
0.0014583
0.0014583
0.00143158
0.00143158
0.00143158
0.00143158
0.00144705
0.00146027
0.00145824
0.00144927
0.00146027
0.00144699
0.00144933
0.00146029
0.00144695
0.00144705
0.00145824
0.00146027
0.00144927
0.00146027
0.00144933
0.00144699
0.00146029
0.00146029
0.0014472
0.00144695
0.00144695
0.00141135
0.00142466
0.00142467
0.00141134
0.00142467
0.00141135
0.00141135
0.00142466
0.00142467
0.00141134
0.00142268
0.00142268
0.00142268
0.00139599
0.00139599
0.00139599
0.00139599
0.00141144
0.00142464
0.00142261
0.00141366
0.00142464
0.00141138
0.00141371
0.00142466
0.00141134
0.00141144
0.00142261
0.00142464
0.00141366
0.00142464
0.00141371
0.00141138
0.00142467
0.00142467
0.00141159
0.00141134
0.00141134
0.00137579
0.00138908
0.00138908
0.00137578
0.00138908
0.00137578
0.00137579
0.00138908
0.00138909
0.00137578
0.0013871
0.0013871
0.0013871
0.00136043
0.00136043
0.00136043
0.00136043
0.00137587
0.00138906
0.00138702
0.00137808
0.00138906
0.00137582
0.00137813
0.00138909
0.00137578
0.00137587
0.00138702
0.00138906
0.00137808
0.00138906
0.00137813
0.00137582
0.00138909
0.00138909
0.00137601
0.00137578
0.00137578
0.00134026
0.00135354
0.00135354
0.00134025
0.00135354
0.00134025
0.00134026
0.00135354
0.00135354
0.00134025
0.00135155
0.00135155
0.00135155
0.00132491
0.00132491
0.00132492
0.00132491
0.00134033
0.00135352
0.00135147
0.00134254
0.00135351
0.00134029
0.00134259
0.00135354
0.00134025
0.00134034
0.00135147
0.00135352
0.00134254
0.00135351
0.00134259
0.00134029
0.00135355
0.00135355
0.00134048
0.00134025
0.00134025
0.00130476
0.00131804
0.00131804
0.00130475
0.00131804
0.00130475
0.00130476
0.00131803
0.00131803
0.00130475
0.00131604
0.00131604
0.00131604
0.00128943
0.00128943
0.00128942
0.00128942
0.00130483
0.00131801
0.00131596
0.00130704
0.001318
0.00130479
0.00130708
0.00131804
0.00130475
0.00130483
0.00131596
0.00131801
0.00130704
0.001318
0.00130708
0.00130479
0.00131804
0.00131804
0.00130498
0.00130475
0.00130475
0.00126929
0.00128256
0.00128255
0.00126928
0.00128256
0.00126929
0.00126929
0.00128256
0.00128256
0.00126928
0.00128055
0.00128055
0.00128055
0.00125396
0.00125396
0.00125396
0.00125396
0.00126936
0.00128253
0.00128047
0.00127156
0.00128252
0.00126932
0.0012716
0.00128256
0.00126929
0.00126936
0.00128047
0.00128253
0.00127156
0.00128252
0.00127161
0.00126932
0.00128256
0.00128256
0.0012695
0.00126928
0.00126928
0.00123384
0.0012471
0.0012471
0.00123384
0.0012471
0.00123384
0.00123384
0.0012471
0.0012471
0.00123384
0.00124509
0.00124509
0.00124509
0.0012185
0.0012185
0.0012185
0.0012185
0.00123391
0.00124707
0.00124501
0.00123611
0.00124706
0.00123387
0.00123615
0.0012471
0.00123384
0.00123391
0.00124501
0.00124707
0.0012361
0.00124706
0.00123615
0.00123387
0.0012471
0.0012471
0.00123405
0.00123383
0.00123383
0.00119843
0.00121168
0.00121167
0.00119842
0.00121168
0.00119842
0.00119843
0.00121168
0.00121167
0.00119842
0.00120964
0.00120964
0.00120965
0.0011831
0.0011831
0.0011831
0.0011831
0.00119849
0.00121164
0.00120957
0.00120068
0.00121163
0.00119845
0.00120072
0.00121168
0.00119842
0.00119849
0.00120957
0.00121164
0.00120068
0.00121163
0.00120072
0.00119845
0.00121168
0.00121168
0.00119863
0.00119841
0.00119841
0.001163
0.00117626
0.00117626
0.001163
0.00117625
0.001163
0.00116301
0.00117626
0.00117626
0.001163
0.00117425
0.00117424
0.00117424
0.00114767
0.00114766
0.00114768
0.00114768
0.00116308
0.00117622
0.00117416
0.00116527
0.00117622
0.00116303
0.00116531
0.00117626
0.00116301
0.00116308
0.00117416
0.00117622
0.00116527
0.00117621
0.00116531
0.00116304
0.00117625
0.00117625
0.00116321
0.001163
0.001163
0.00112762
0.00114086
0.00114086
0.00112762
0.00114087
0.00112762
0.00112761
0.00114086
0.00114086
0.00112761
0.00113881
0.00113883
0.00113882
0.00111227
0.00111228
0.00111225
0.00111226
0.00112768
0.00114083
0.00113874
0.00112986
0.00114081
0.00112765
0.0011299
0.00114086
0.00112761
0.00112767
0.00113875
0.00114083
0.00112985
0.00114081
0.00112989
0.00112763
0.00114086
0.00114086
0.0011278
0.0011276
0.0011276
0.0010922
0.00110546
0.00110546
0.0010922
0.00110545
0.0010922
0.00109221
0.00110546
0.00110545
0.00109221
0.00110342
0.0011034
0.00110341
0.00107685
0.00107684
0.00107687
0.00107686
0.00109227
0.00110542
0.00110335
0.00109445
0.00110541
0.00109223
0.00109449
0.00110546
0.00109222
0.00109228
0.00110333
0.00110543
0.00109445
0.00110541
0.00109449
0.00109225
0.00110546
0.00110546
0.00109241
0.0010922
0.00109221
0.00105684
0.00107007
0.00107006
0.00105684
0.00107008
0.00105684
0.00105683
0.00107007
0.00107006
0.00105683
0.001068
0.00106803
0.00106801
0.00104148
0.00104148
0.00104147
0.00104148
0.00105689
0.00107004
0.00106794
0.00105906
0.00107001
0.00105686
0.0010591
0.00107007
0.00105682
0.00105689
0.00106795
0.00107003
0.00105907
0.00107002
0.0010591
0.00105685
0.00107006
0.00107006
0.00105701
0.00105682
0.00105682
0.0010215
0.00103473
0.00103472
0.0010215
0.00103472
0.00102151
0.00102151
0.00103474
0.00103472
0.00102151
0.00103264
0.00103263
0.00103264
0.00100619
0.00100618
0.00100618
0.00100617
0.00102157
0.00103468
0.00103258
0.00102373
0.00103467
0.00102153
0.00102375
0.00103473
0.00102151
0.00102156
0.00103257
0.00103468
0.00102372
0.00103466
0.00102375
0.00102153
0.00103473
0.00103473
0.00102169
0.00102149
0.00102149
0.000986083
0.000999342
0.000999355
0.000986076
0.000999358
0.000986086
0.000986083
0.000999339
0.000999354
0.000986075
0.000997361
0.000997354
0.00099735
0.000970751
0.00097076
0.000970771
0.000970766
0.000986163
0.000999331
0.000997285
0.00098838
0.000999327
0.000986115
0.000988427
0.000999352
0.000986087
0.00098617
0.000997275
0.000999329
0.000988383
0.000999326
0.000988423
0.000986123
0.00099934
0.000999342
0.000986299
0.000986071
0.000986075
0.000950685
0.000963927
0.000963911
0.000950703
0.00096393
0.000950702
0.000950672
0.000963928
0.000963913
0.000950696
0.000961864
0.000961879
0.000961872
0.000935227
0.000935239
0.000935212
0.000935218
0.000950717
0.000963884
0.000961772
0.000952875
0.00096386
0.000950705
0.000952903
0.000963922
0.000950684
0.000950712
0.000961784
0.000963886
0.000952862
0.000963866
0.000952902
0.000950688
0.00096392
0.000963922
0.000950818
0.000950684
0.000950679
0.000915319
0.000928583
0.000928577
0.000915322
0.000928555
0.000915276
0.000915337
0.000928576
0.000928557
0.000915341
0.000926381
0.000926356
0.000926368
0.00089989
0.000899866
0.000899888
0.000899904
0.000915372
0.000928511
0.000926349
0.00091748
0.000928489
0.000915313
0.000917507
0.000928571
0.000915353
0.000915389
0.000926331
0.000928514
0.000917492
0.000928475
0.000917507
0.000915366
0.000928586
0.000928579
0.000915501
0.000915353
0.000915354
0.000879934
0.000893146
0.000893121
0.000879937
0.000893159
0.000879995
0.00087996
0.00089319
0.000893196
0.000879942
0.000891035
0.000891107
0.000891124
0.000864694
0.000864658
0.000864742
0.000864673
0.000879998
0.000893116
0.00089103
0.000882167
0.000893111
0.000879987
0.000882207
0.00089321
0.000879949
0.000880019
0.000891107
0.000893182
0.000882271
0.000893177
0.000882303
0.000879972
0.000893164
0.000893178
0.000880164
0.000879874
0.000879882
0.000844535
0.000857824
0.000857866
0.000844477
0.000857872
0.000844509
0.000844427
0.000857758
0.000857781
0.000844402
0.000855886
0.000855859
0.000855791
0.000828935
0.000829073
0.000828804
0.000828855
0.000844585
0.000857823
0.00085576
0.000846888
0.000857773
0.000844556
0.000846888
0.000857727
0.000844351
0.000844469
0.000855691
0.000857699
0.000846704
0.000857701
0.000846741
0.000844404
0.000857709
0.0008577
0.00084462
0.000844405
0.00084438
0.000808247
0.000821887
0.00082193
0.000808308
0.000821886
0.000808222
0.000808283
0.000821859
0.000821839
0.000808381
0.000819918
0.000819714
0.000819795
0.000792413
0.000792485
0.000792448
0.000792538
0.000808402
0.000821927
0.000819821
0.000810671
0.000821951
0.000808311
0.000810694
0.000821825
0.000808452
0.000808376
0.000819667
0.0008218
0.000810527
0.000821824
0.000810581
0.000808415
0.00082198
0.000821965
0.000808467
0.000808513
0.000808525
0.000772977
0.000786093
0.000785902
0.000773143
0.000785998
0.000773104
0.000773203
0.00078623
0.000786143
0.000773256
0.000783325
0.000783473
0.000783525
0.000757756
0.000757483
0.000757977
0.000757795
0.000772833
0.000785828
0.00078329
0.000774405
0.000785724
0.000772949
0.000774445
0.000786376
0.000773375
0.00077313
0.000783564
0.000786235
0.000774964
0.000786044
0.000774901
0.000773266
0.000786216
0.00078627
0.000772987
0.0007731
0.000773155
0.000739767
0.000752107
0.000752041
0.000739535
0.00075215
0.000739719
0.0007395
0.000752081
0.000752121
0.000739381
0.000749433
0.000749695
0.000749526
0.000725498
0.000725469
0.000725399
0.000725345
0.000739797
0.000751916
0.000749508
0.000741524
0.000751733
0.000739821
0.000741471
0.000752018
0.000739229
0.000739585
0.000749744
0.000752014
0.00074173
0.000751928
0.000741613
0.00073937
0.000751843
0.000751862
0.000739913
0.000739268
0.000739236
0.000704401
0.000717765
0.000718065
0.000704175
0.00071793
0.000704193
0.00070422
0.000717564
0.000717664
0.000704149
0.000717635
0.000717198
0.000717295
0.000690055
0.000690349
0.000689793
0.000690013
0.000704952
0.000718216
0.000717431
0.000708343
0.000718396
0.000704586
0.000708635
0.000717349
0.000704052
0.000704629
0.000716776
0.000717507
0.000707481
0.000717838
0.000707824
0.000704292
0.000717716
0.000717605
0.000705261
0.000704395
0.000704316
0.000667068
0.000681168
0.000681183
0.000667417
0.000680997
0.000667127
0.000667554
0.000681414
0.000681398
0.000667742
0.000680363
0.000680226
0.000680343
0.00065069
0.000650657
0.000650977
0.000650939
0.000667095
0.000681256
0.000679879
0.000669897
0.000681528
0.000666992
0.000670137
0.00068155
0.000668007
0.000667517
0.00067992
0.000681559
0.000670127
0.000681689
0.000670332
0.000667827
0.000681555
0.000681573
0.000667426
0.00066774
0.000667823
0.000631345
0.00064482
0.000644491
0.000631516
0.00064471
0.000631545
0.000631438
0.000645036
0.000644878
0.000631529
0.000640436
0.000640822
0.000640792
0.000612975
0.000612758
0.000613314
0.000613197
0.000630773
0.000644268
0.000640203
0.00063109
0.000643783
0.000631219
0.000630781
0.000645227
0.000631497
0.000631055
0.00064084
0.000644962
0.000632045
0.000644416
0.000631563
0.00063135
0.000644839
0.000644943
0.000630366
0.000631217
0.000631251
0.00059532
0.000608796
0.000608826
0.000595086
0.000608956
0.000595256
0.000594707
0.000608495
0.000608464
0.000594696
0.000604558
0.000604659
0.000604593
0.000579094
0.00057913
0.000578438
0.000578529
0.00059521
0.000608654
0.00060547
0.000597194
0.000608409
0.000595246
0.000596949
0.000608158
0.000594267
0.000594558
0.000605384
0.00060807
0.00059659
0.000608069
0.000596534
0.000594237
0.000608203
0.000608155
0.000595076
0.000594458
0.00059435
0.000558405
0.000572046
0.000572205
0.000558313
0.00057218
0.000558445
0.000558271
0.000571825
0.000571753
0.000558304
0.000570656
0.000569938
0.000569998
0.00054467
0.000544733
0.000544588
0.000544725
0.000558737
0.000572165
0.000570793
0.00056192
0.000572246
0.0005586
0.00056191
0.000571581
0.000558407
0.000558463
0.000569946
0.000571471
0.000561144
0.000571617
0.00056117
0.000558414
0.000571902
0.000571765
0.000559022
0.00055867
0.000558596
0.000524515
0.000536754
0.000536684
0.000524663
0.000536804
0.000524663
0.000524964
0.000536987
0.000537035
0.000524887
0.000535883
0.00053618
0.000536288
0.000510628
0.000510607
0.000511191
0.000511312
0.000524849
0.000536924
0.000535111
0.000526568
0.000536999
0.000524752
0.000526735
0.000537486
0.000525384
0.000525455
0.000535563
0.000537555
0.000527354
0.000537436
0.000527416
0.000525561
0.000537511
0.000537594
0.000525149
0.00052526
0.000525393
0.000492212
0.000504654
0.000504599
0.000492197
0.000504558
0.000492084
0.000492126
0.000504672
0.000504768
0.000492097
0.000502408
0.000503007
0.000502932
0.000476833
0.000476811
0.000476649
0.000476544
0.000492081
0.000504485
0.000502429
0.000493995
0.000504484
0.000492029
0.000494129
0.000504717
0.000491727
0.000492026
0.000502998
0.000504862
0.000494363
0.000504877
0.00049453
0.000491816
0.000504517
0.000504573
0.000492141
0.000491613
0.000491632
0.000455863
0.000469887
0.000469915
0.000455826
0.000469736
0.000455735
0.000455556
0.000469728
0.000469607
0.000455714
0.000467793
0.000467378
0.000467306
0.00043932
0.00043942
0.000438933
0.000439107
0.000455789
0.000469664
0.000467704
0.000458395
0.000469616
0.000455756
0.000458366
0.000469163
0.000455229
0.000455392
0.000467313
0.000469126
0.000457827
0.000469269
0.000457865
0.000455235
0.000469252
0.000469208
0.00045574
0.000455438
0.000455372
0.000418033
0.000432051
0.000431982
0.000418066
0.000432023
0.000418086
0.000418342
0.000432181
0.000432057
0.000418363
0.000429838
0.000429375
0.000429621
0.000401644
0.000401691
0.00040164
0.000402044
0.000418209
0.000431999
0.000429737
0.000420187
0.000431963
0.000418163
0.000420257
0.000432302
0.000418766
0.000418462
0.000429265
0.000432098
0.000419979