/*--------------------------------*- C++ -*----------------------------------*\
| =========                 |                                                 |
| \\      /  F ield         | OpenFOAM: The Open Source CFD Toolbox           |
|  \\    /   O peration     | Version:  v2012                                 |
|   \\  /    A nd           | Website:  www.openfoam.com                      |
|    \\/     M anipulation  |                                                 |
\*---------------------------------------------------------------------------*/
FoamFile
{
    version     2.0;
    format      ascii;
    class       surfaceScalarField;
    location    "750";
    object      phi;
}
// * * * * * * * * * * * * * * * * * * * * * * * * * * * * * * * * * * * * * //

dimensions      [0 3 -1 0 0 0 0];
oriented        oriented;


internalField   nonuniform List<scalar> 
248808
(
-2.18909e-07
-2.18767e-07
1.92201e-07
1.92534e-07
0.00119109
-1.24749e-06
2.18896e-07
7.15533e-08
0.00114033
-2.50556e-07
1.22062e-06
2.26513e-07
8.54179e-07
-2.44065e-07
-9.00212e-07
1.96466e-07
-1.24191e-06
2.18882e-07
7.13984e-08
0.00113996
-2.50511e-07
1.21507e-06
2.2656e-07
8.54017e-07
-2.46712e-07
-9.00097e-07
1.99143e-07
1.27652e-06
1.24204e-06
-2.35052e-07
-2.40347e-07
0.000269464
-1.94178e-07
-1.9397e-07
-0.00119122
1.77315e-07
1.77867e-07
0.00119125
-0.0011399
-1.24209e-06
1.94147e-07
6.13564e-08
0.00113976
-2.46293e-07
1.22181e-06
2.28254e-07
8.5691e-07
-2.38456e-07
-8.93935e-07
1.997e-07
-0.00113953
-1.23655e-06
1.93902e-07
6.13497e-08
0.00113939
-2.46286e-07
1.21624e-06
2.28266e-07
8.56795e-07
-2.41062e-07
-8.93767e-07
2.02415e-07
-0.000271363
1.27113e-06
1.23669e-06
-2.3114e-07
-2.36412e-07
0.000269323
-1.7029e-07
-1.70028e-07
-0.00119132
1.62931e-07
1.63005e-07
0.00119134
-0.00113934
-1.23708e-06
1.69944e-07
5.20284e-08
0.0011392
-2.4236e-07
1.22288e-06
2.29817e-07
8.59559e-07
-2.33104e-07
-8.87948e-07
2.02801e-07
-0.00113897
-1.23152e-06
1.70016e-07
5.20494e-08
0.00113883
-2.42331e-07
1.21732e-06
2.29848e-07
8.59387e-07
-2.35763e-07
-8.87837e-07
2.05468e-07
-0.000271228
1.26609e-06
1.23168e-06
-2.27524e-07
-2.3278e-07
0.000269191
-1.46847e-07
-1.4652e-07
-0.00119136
1.47477e-07
1.47843e-07
0.00119135
-0.0011388
-1.23243e-06
1.46646e-07
4.36101e-08
0.00113867
-2.38741e-07
1.22378e-06
2.31182e-07
8.62054e-07
-2.28051e-07
-8.82312e-07
2.05729e-07
-0.00113843
-1.22688e-06
1.46451e-07
4.34992e-08
0.0011383
-2.38738e-07
1.21821e-06
2.31183e-07
8.61907e-07
-2.30685e-07
-8.82178e-07
2.0842e-07
-0.000271102
1.2614e-06
1.22703e-06
-2.24195e-07
-2.29437e-07
0.000269067
-1.24386e-07
-1.24637e-07
-0.00119133
1.33233e-07
1.32867e-07
0.00119131
-0.00113828
-1.2281e-06
1.24404e-07
3.55693e-08
0.00113816
-2.35387e-07
1.22459e-06
2.32421e-07
8.64391e-07
-2.23316e-07
-8.77017e-07
2.0845e-07
-0.00113791
-1.22257e-06
1.24323e-07
3.57047e-08
0.00113779
-2.35381e-07
1.21901e-06
2.32427e-07
8.6421e-07
-2.25977e-07
-8.76899e-07
2.111e-07
-0.000270985
1.25707e-06
1.22267e-06
-2.21123e-07
-2.26393e-07
0.000268953
-1.02484e-07
-1.02174e-07
-0.00119123
1.17111e-07
1.17562e-07
0.0011912
-0.00113779
-1.22405e-06
1.02711e-07
2.81652e-08
0.00113767
-2.32287e-07
1.22529e-06
2.33492e-07
8.66546e-07
-2.18884e-07
-8.7206e-07
2.10964e-07
-0.00113742
-1.21845e-06
1.02576e-07
2.80775e-08
0.0011373
-2.32234e-07
1.21978e-06
2.33531e-07
8.66391e-07
-2.21507e-07
-8.71921e-07
2.13651e-07
-0.000270876
1.25301e-06
1.21862e-06
-2.18315e-07
-2.23566e-07
0.000268847
-8.3025e-08
-8.28161e-08
-0.0011911
1.03706e-07
1.03853e-07
0.00119106
-0.00113732
-1.22036e-06
8.21546e-08
2.18138e-08
0.0011372
-2.29462e-07
1.22588e-06
2.34457e-07
8.68678e-07
-2.14659e-07
-8.67339e-07
2.13411e-07
-0.00113695
-1.21484e-06
8.21121e-08
2.18329e-08
0.00113683
-2.29452e-07
1.22031e-06
2.34473e-07
8.6854e-07
-2.17277e-07
-8.67199e-07
2.16117e-07
-0.000270776
1.24935e-06
1.21497e-06
-2.15786e-07
-2.21042e-07
0.000268748
-6.28123e-08
-6.28502e-08
-0.00119092
8.97006e-08
8.90129e-08
0.00119086
-0.00113686
-1.21672e-06
6.28465e-08
1.51091e-08
0.00113675
-2.26657e-07
1.22654e-06
2.35441e-07
8.70714e-07
-2.10625e-07
-8.62826e-07
2.15726e-07
-0.0011365
-1.21126e-06
6.29049e-08
1.48928e-08
0.00113639
-2.26697e-07
1.22093e-06
2.35422e-07
8.70488e-07
-2.13339e-07
-8.62764e-07
2.18339e-07
-0.000270683
1.24562e-06
1.21142e-06
-2.13294e-07
-2.18448e-07
0.000268658
-4.43648e-08
-4.37245e-08
-0.00119069
7.45034e-08
7.58391e-08
0.00119062
-0.00113644
-1.21351e-06
4.3336e-08
8.95878e-09
0.00113634
-2.24273e-07
1.22698e-06
2.3614e-07
8.72386e-07
-2.07093e-07
-8.58827e-07
2.1764e-07
-0.00113607
-1.20793e-06
4.33929e-08
9.31115e-09
0.00113597
-2.24259e-07
1.22143e-06
2.36115e-07
8.72211e-07
-2.09716e-07
-8.58671e-07
2.20291e-07
-0.000270598
1.24261e-06
1.20809e-06
-2.11148e-07
-2.16503e-07
0.000268575
-2.64907e-08
-2.62773e-08
-0.00119043
6.03544e-08
6.01146e-08
0.00119036
-0.00113604
-1.2106e-06
2.72303e-08
3.65743e-09
0.00113594
-2.22061e-07
1.22733e-06
2.368e-07
8.73891e-07
-2.03837e-07
-8.5517e-07
2.19388e-07
-0.00113567
-1.20504e-06
2.70663e-08
3.71596e-09
0.00113557
-2.21974e-07
1.22184e-06
2.3691e-07
8.73789e-07
-2.06413e-07
-8.55003e-07
2.22137e-07
-0.000270522
1.23946e-06
1.20517e-06
-2.09147e-07
-2.14323e-07
0.0002685
-9.96922e-09
-9.59173e-09
-0.00119015
4.79124e-08
4.7149e-08
0.00119007
-0.00113566
-1.20779e-06
9.66627e-09
-4.93447e-10
0.00113557
-2.19986e-07
1.22765e-06
2.37327e-07
8.75808e-07
-2.00267e-07
-8.51231e-07
2.21505e-07
-0.00113529
-1.20223e-06
9.859e-09
-1.28919e-09
0.0011352
-2.19952e-07
1.22213e-06
2.37375e-07
8.75517e-07
-2.03027e-07
-8.51246e-07
2.24093e-07
-0.000270451
1.23653e-06
1.20241e-06
-2.07249e-07
-2.12372e-07
0.000268431
4.74235e-09
5.45182e-09
-0.00118983
3.55198e-08
3.746e-08
0.00118975
-0.0011353
-1.20513e-06
-6.09751e-09
-5.972e-09
0.00113521
-2.17972e-07
1.22809e-06
2.37993e-07
8.77176e-07
-1.97444e-07
-8.48012e-07
2.23038e-07
-0.00113493
-1.19967e-06
-7.15303e-09
-5.12371e-09
0.00113485
-2.18047e-07
1.22244e-06
2.379e-07
8.77204e-07
-1.99905e-07
-8.4767e-07
2.25861e-07
-0.000270387
1.23416e-06
1.19978e-06
-2.05609e-07
-2.10877e-07
0.00026837
2.15734e-08
2.13468e-08
-0.0011895
2.26482e-08
2.09264e-08
0.00118941
-0.00113497
-1.20268e-06
-2.22732e-08
-1.00834e-08
0.00113489
-2.16184e-07
1.2284e-06
2.38478e-07
8.78306e-07
-1.94865e-07
-8.45047e-07
2.24289e-07
-0.0011346
-1.19725e-06
-2.09906e-08
-9.77219e-09
0.00113452
-2.1621e-07
1.22277e-06
2.38458e-07
8.77924e-07
-1.97718e-07
-8.45149e-07
2.26773e-07
-0.000270331
1.23161e-06
1.19731e-06
-2.04029e-07
-2.09262e-07
0.000268316
3.50525e-08
3.47805e-08
-0.00118915
7.98538e-09
8.00435e-09
0.00118907
-0.00113466
-1.20043e-06
-3.10818e-08
-1.4734e-08
0.00113458
-2.14526e-07
1.22865e-06
2.38858e-07
8.79483e-07
-1.92406e-07
-8.42401e-07
2.25703e-07
-0.00113429
-1.19458e-06
-3.24573e-08
-1.65531e-08
0.00113422
-2.14191e-07
1.22347e-06
2.39223e-07
8.79387e-07
-1.94965e-07
-8.42163e-07
2.28423e-07
-0.000270281
1.22948e-06
1.19504e-06
-2.02376e-07
-2.07708e-07
0.000268266
4.27501e-08
4.78767e-08
-0.00118879
8.15154e-10
6.27544e-09
0.00118869
-0.00113436
-1.19874e-06
-4.94571e-08
-1.50827e-08
0.00113429
-2.13237e-07
1.22851e-06
2.39057e-07
8.80987e-07
-1.89648e-07
-8.39192e-07
2.27177e-07
-0.00113399
-1.19333e-06
-4.867e-08
-1.47424e-08
0.00113392
-2.134e-07
1.22286e-06
2.38908e-07
8.80959e-07
-1.9219e-07
-8.39053e-07
2.30077e-07
-0.000270235
1.22691e-06
1.19309e-06
-2.01119e-07
-2.06033e-07
0.000268222
6.56043e-08
5.49164e-08
-0.0011884
-5.91373e-09
-1.92755e-08
0.0011883
-0.00113409
-1.19562e-06
-6.13726e-08
-2.63643e-08
0.00113403
-2.10924e-07
1.22999e-06
2.40257e-07
8.81694e-07
-1.87883e-07
-8.37288e-07
2.28096e-07
-0.00113372
-1.19101e-06
-5.82612e-08
-2.13305e-08
0.00113366
-2.11725e-07
1.2233e-06
2.39331e-07
8.8067e-07
-1.91284e-07
-8.37732e-07
2.29757e-07
-0.000270197
1.22603e-06
1.19102e-06
-2.00152e-07
-2.05929e-07
0.000268186
5.78222e-08
7.17609e-08
-0.00118803
-2.81368e-08
-8.50392e-09
0.00118793
-0.00113385
-1.19625e-06
-5.92729e-08
-2.04722e-08
0.00113378
-2.11479e-07
1.22782e-06
2.38912e-07
8.80372e-07
-1.88052e-07
-8.37178e-07
2.26889e-07
-0.00113349
-1.18912e-06
-6.96067e-08
-2.93017e-08
0.00113343
-2.09939e-07
1.22414e-06
2.40525e-07
8.81891e-07
-1.89244e-07
-8.35669e-07
2.31244e-07
-0.000270166
1.22326e-06
1.19031e-06
-1.99437e-07
-2.03867e-07
0.000268156
8.36574e-08
7.27373e-08
-0.00118764
-2.00797e-08
-3.92975e-08
0.00118754
-0.00113362
-1.19265e-06
-8.25232e-08
-3.02355e-08
0.00113356
-2.0891e-07
1.22969e-06
2.40192e-07
8.83896e-07
-1.83855e-07
-8.32588e-07
2.30155e-07
-0.00113326
-1.1879e-06
-6.91577e-08
-2.2916e-08
0.00113319
-2.09496e-07
1.22337e-06
2.39683e-07
8.81936e-07
-1.8802e-07
-8.34043e-07
2.31276e-07
-0.000270136
1.22328e-06
1.18645e-06
-1.9703e-07
-2.03945e-07
0.000268128
8.60349e-08
9.19099e-08
-0.00118726
-4.34678e-08
-3.27962e-08
0.00118716
-0.0011334
-1.19083e-06
-8.49252e-08
-3.56201e-08
0.00113334
-2.06487e-07
1.23079e-06
2.42299e-07
8.85068e-07
-1.81806e-07
-8.30672e-07
2.31894e-07
-0.00113301
-1.18533e-06
-8.90414e-08
-3.87581e-08
0.00113296
-2.07144e-07
1.22473e-06
2.41223e-07
8.85501e-07
-1.83773e-07
-8.29933e-07
2.35106e-07
-0.000270111
1.21931e-06
1.18661e-06
-1.96347e-07
-2.00269e-07
0.000268101
8.80771e-08
8.90089e-08
-0.00118681
-2.56733e-08
-2.61773e-08
0.00118668
-0.00113316
-1.18886e-06
-1.02439e-07
-3.57604e-08
0.00113311
-2.05923e-07
1.2308e-06
2.41484e-07
8.85832e-07
-1.79747e-07
-8.27968e-07
2.32097e-07
-0.0011328
-1.1846e-06
-1.06646e-07
-3.00374e-08
0.00113275
-2.06482e-07
1.22445e-06
2.41302e-07
8.86477e-07
-1.81837e-07
-8.27132e-07
2.35415e-07
-0.000270081
1.21692e-06
1.18468e-06
-1.95733e-07
-1.99635e-07
0.000268075
1.33296e-07
1.19604e-07
-0.00118635
-7.55638e-08
-9.06549e-08
0.00118626
-0.00113302
-1.18859e-06
-1.09594e-07
-4.16195e-08
0.001133
-2.06219e-07
1.23e-06
2.40379e-07
8.81566e-07
-1.83766e-07
-8.31915e-07
2.28211e-07
-0.00113265
-1.18302e-06
-1.06558e-07
-4.2078e-08
0.00113263
-2.05998e-07
1.22433e-06
2.40627e-07
8.79792e-07
-1.87835e-07
-8.32992e-07
2.29116e-07
-0.000270086
1.21981e-06
1.18209e-06
-1.95739e-07
-2.04005e-07
0.000268083
7.40963e-08
1.06427e-07
-0.00118606
-7.779e-08
-3.91823e-08
0.001186
-0.00113291
-1.19523e-06
-7.7675e-08
-1.78596e-08
0.00113287
-2.10967e-07
1.223e-06
2.36214e-07
8.79406e-07
-1.85718e-07
-8.33369e-07
2.25602e-07
-0.00113258
-1.18348e-06
-9.35072e-08
-4.63642e-08
0.00113255
-2.05656e-07
1.22416e-06
2.41394e-07
8.8225e-07
-1.8546e-07
-8.31362e-07
2.3219e-07
-0.000270095
1.21683e-06
1.18568e-06
-1.96168e-07
-1.99723e-07
0.000268089
1.10162e-07
6.54238e-08
-0.00118572
5.21023e-10
-4.49395e-08
0.00118559
-0.00113274
-1.17341e-06
-1.11969e-07
-1.20427e-07
0.0011327
-1.9148e-07
1.24449e-06
2.54216e-07
8.91504e-07
-1.72289e-07
-8.22296e-07
2.40032e-07
-0.00113234
-1.17834e-06
-8.1172e-08
-5.10566e-08
0.00113224
-2.01184e-07
1.22793e-06
2.44575e-07
8.91601e-07
-1.74568e-07
-8.20932e-07
2.42106e-07
-0.00027004
1.2263e-06
1.17937e-06
-1.89997e-07
-2.02302e-07
0.000268027
1.53038e-07
1.2151e-07
-0.00118512
-2.70629e-08
-1.0995e-07
0.00118498
-0.00113256
-1.1922e-06
-1.78533e-07
1.84055e-08
0.0011325
-2.11664e-07
1.22137e-06
2.31444e-07
9.00212e-07
-1.62393e-07
-8.09706e-07
2.45872e-07
-0.00113198
-1.19318e-06
-1.3395e-07
2.66386e-08
0.00113195
-2.1727e-07
1.20882e-06
2.25723e-07
8.8462e-07
-1.78974e-07
-8.23787e-07
2.33594e-07
-0.000270006
1.20429e-06
1.18313e-06
-1.98723e-07
-1.92482e-07
0.00026801
-3.34108e-08
1.5755e-07
-0.00118482
-1.86996e-07
6.54085e-08
0.00118482
-0.00113232
-1.2205e-06
8.12595e-09
1.22902e-07
0.00113231
-2.34489e-07
1.19536e-06
2.10963e-07
8.39066e-07
-2.20465e-07
-8.6719e-07
1.84044e-07
-0.00113214
-1.18721e-06
-1.43126e-07
-8.1669e-08
0.0011323
-2.07731e-07
1.22213e-06
2.40711e-07
8.57321e-07
-2.11385e-07
-8.52875e-07
2.02428e-07
-0.000270116
1.20145e-06
1.2052e-06
-2.17582e-07
-2.0107e-07
0.000268128
2.51936e-07
9.42591e-08
-0.00118477
-1.33328e-07
-1.82642e-07
0.00118474
-0.0011326
-1.14939e-06
-6.87522e-08
-3.4866e-07
0.0011328
-1.70824e-07
1.2677e-06
2.74071e-07
8.58937e-07
-2.11667e-07
-8.56847e-07
2.0399e-07
-0.00113278
-1.15359e-06
-6.29529e-08
-1.76924e-07
0.00113277
-1.82956e-07
1.24944e-06
2.59762e-07
8.77717e-07
-1.93236e-07
-8.37433e-07
2.27013e-07
-0.000270184
1.28032e-06
1.16128e-06
-1.79036e-07
-2.48062e-07
0.000268169
3.63282e-07
2.10615e-08
-0.00118442
2.32417e-07
-3.91255e-07
0.00118419
-0.00113302
-1.14015e-06
-4.09381e-07
-1.6003e-07
0.00113277
-1.62025e-07
1.27144e-06
2.79581e-07
9.99678e-07
-6.62362e-08
-7.17826e-07
3.50902e-07
-0.0011318
-1.18501e-06
-3.09715e-08
1.58712e-07
0.00113122
-2.04353e-07
1.2117e-06
2.36427e-07
9.52238e-07
-1.05688e-07
-7.55835e-07
3.07099e-07
-0.000269973
1.18988e-06
1.1264e-06
-1.33596e-07
-1.4772e-07
0.000267938
-2.66954e-08
5.06272e-07
-0.00118293
-2.24431e-07
3.0067e-07
0.00118237
-0.001131
-1.17807e-06
-2.97412e-07
3.19414e-07
0.0011304
-1.8528e-07
1.23059e-06
2.53116e-07
9.6267e-07
-7.97149e-08
-7.27232e-07
3.08101e-07
-0.00112976
-1.13997e-06
-4.50963e-07
-1.27439e-07
0.0011297
-1.57767e-07
1.25887e-06
2.81746e-07
9.48675e-07
-1.0239e-07
-7.47692e-07
2.98418e-07
-0.000269752
1.05793e-06
1.18264e-06
-1.72539e-07
-7.45638e-08
0.000267758
3.15983e-07
4.50921e-07
-0.00118131
-6.5074e-07
-2.25894e-08
0.00118122
-0.00112998
-1.17417e-06
-6.72941e-08
-2.06685e-07
0.00113042
-1.96775e-07
1.23163e-06
2.38171e-07
7.88586e-07
-2.69756e-07
-9.08964e-07
1.24914e-07
-0.0011309
-1.13366e-06
-5.51804e-07
-3.70868e-07
0.00113162
-1.72829e-07
1.26351e-06
2.63568e-07
8.55173e-07
-2.15629e-07
-8.46616e-07
1.90035e-07
-0.000270028
1.26015e-06
1.15508e-06
-2.00852e-07
-2.80648e-07
0.000268094
5.72388e-07
-1.87329e-07
-0.00118183
-4.51742e-08
-9.24247e-07
0.00118242
-0.00113335
-1.19345e-06
-2.04298e-07
-5.74013e-07
0.00113449
-2.34491e-07
1.21692e-06
2.08365e-07
7.71402e-07
-3.03055e-07
-9.49962e-07
1.19948e-07
-0.00113379
-1.26558e-06
2.45498e-07
1.58393e-07
0.00113413
-3.00972e-07
1.13524e-06
1.44735e-07
7.43167e-07
-3.27763e-07
-9.74385e-07
9.6179e-08
-0.000270623
1.43109e-06
1.18342e-06
-2.51459e-07
-3.89498e-07
0.00026865
-5.83631e-07
-7.16713e-07
-0.00118475
7.93094e-07
-6.66072e-08
0.00118533
-0.00113583
-1.29186e-06
4.09076e-07
3.56063e-07
0.00113528
-3.00938e-07
1.13304e-06
1.50781e-07
8.81617e-07
-1.85843e-07
-8.53208e-07
2.44532e-07
-0.00113313
-1.31574e-06
9.65885e-07
4.31812e-07
0.00113234
-3.14814e-07
1.09584e-06
1.37328e-07
8.03083e-07
-2.58239e-07
-9.2409e-07
1.69933e-07
-0.000270443
1.19245e-06
1.31037e-06
-2.79775e-07
-1.40344e-07
0.00026836
-9.70922e-07
9.91831e-08
-0.00118477
3.41498e-07
1.61648e-06
0.00118368
-0.00113166
-1.269e-06
8.49923e-08
9.22557e-07
0.00113042
-2.62153e-07
1.15732e-06
1.9039e-07
9.6005e-07
-9.8423e-08
-7.41163e-07
2.97196e-07
-0.00113014
-1.17374e-06
-3.94517e-07
5.44608e-08
0.00112979
-1.81875e-07
1.24143e-06
2.70528e-07
9.949e-07
-7.57559e-08
-7.15394e-07
3.33934e-07
-0.000269818
1.00833e-06
1.24894e-06
-1.97376e-07
-2.32474e-08
0.000267781
9.00227e-07
8.12827e-07
-0.00117978
-6.73994e-07
-1.81281e-07
0.00117893
-0.00112886
-9.99603e-07
-6.54622e-07
-7.05502e-07
0.0011291
-2.70638e-08
1.41147e-06
4.09906e-07
9.39358e-07
-1.25377e-07
-7.57463e-07
2.74679e-07
-0.00113008
-9.63591e-07
-1.14075e-06
-6.98995e-07
0.00113037
-5.20842e-09
1.43248e-06
4.25571e-07
1.02268e-06
-4.38023e-08
-6.7218e-07
3.56055e-07
-0.000269822
1.21084e-06
1.01211e-06
-5.79513e-08
-2.02597e-07
0.000267859
1.44133e-06
7.40093e-07
-0.00117839
-7.39592e-07
-1.8002e-06
0.00117875
-0.00113089
-1.03613e-06
-6.7163e-07
-9.54285e-07
0.0011315
-8.19979e-08
1.35224e-06
3.37828e-07
9.63577e-07
-9.20649e-08
-7.44175e-07
3.16342e-07
-0.00113084
-1.11e-06
-1.19005e-07
-3.40306e-07
0.00113084
-1.51903e-07
1.26467e-06
2.69102e-07
8.92442e-07
-1.54895e-07
-8.06652e-07
2.5208e-07
-0.000270089
1.24472e-06
1.08534e-06
-1.41739e-07
-2.15804e-07
0.000268116
-2.24287e-07
2.35927e-07
-0.00118021
-2.93723e-07
-5.37717e-08
0.00118054
-0.00113235
-1.33679e-06
-1.99055e-07
6.32629e-07
0.00113231
-3.44789e-07
1.07208e-06
9.60178e-08
8.83875e-07
-1.72025e-07
-8.20101e-07
2.27389e-07
-0.001131
-1.31513e-06
-1.13522e-07
2.76971e-07
0.00113129
-3.26009e-07
1.08548e-06
1.16062e-07
8.52525e-07
-2.08411e-07
-8.55318e-07
1.9934e-07
-0.000270305
1.11439e-06
1.28415e-06
-2.85535e-07
-1.42766e-07
0.000268335
-6.32385e-07
-1.37439e-07
-0.00118064
-7.40189e-08
1.01826e-06
0.00118047
-0.0011319
-1.24534e-06
2.80595e-07
2.58956e-07
0.00113182
-2.44567e-07
1.18461e-06
2.12964e-07
7.69165e-07
-2.98517e-07
-9.40416e-07
1.0968e-07
-0.00113288
-1.17152e-06
-3.62872e-07
-2.03687e-07
0.00113342
-1.96678e-07
1.24867e-06
2.59725e-07
8.35943e-07
-2.4542e-07
-8.79752e-07
1.7456e-07
-0.000270576
1.25484e-06
1.21327e-06
-2.14364e-07
-2.60644e-07
0.000268582
1.97285e-07
-4.37771e-07
-0.0011801
3.21776e-07
-9.27053e-08
0.00118011
-0.00113179
-1.11724e-06
3.108e-07
-5.50413e-07
0.00113181
-1.39797e-07
1.2915e-06
2.96609e-07
8.28714e-07
-2.30666e-07
-8.90703e-07
1.88639e-07
-0.00113381
-1.13966e-06
3.03608e-07
-1.21768e-07
0.00113341
-1.67459e-07
1.26486e-06
2.7595e-07
8.53956e-07
-2.14775e-07
-8.69686e-07
2.13828e-07
-0.000270428
1.39509e-06
1.12328e-06
-1.45523e-07
-3.16437e-07
0.000268372
2.973e-07
-3.79975e-07
-0.00118034
7.47766e-07
-6.7778e-07
0.00118036
-0.00113183
-1.22981e-06
-2.08487e-07
5.1153e-08
0.00113187
-2.51739e-07
1.17941e-06
1.87681e-07
9.12993e-07
-1.44836e-07
-7.97837e-07
2.60969e-07
-0.00113107
-1.28044e-06
4.23754e-07
6.27663e-07
0.00113024
-2.83976e-07
1.11811e-06
1.57513e-07
8.68368e-07
-1.83579e-07
-8.3558e-07
2.22242e-07
-0.000270064
1.22033e-06
1.16298e-06
-2.0125e-07
-1.7525e-07
0.000268057
6.61918e-08
3.20906e-07
-0.00118015
4.35502e-08
-3.25302e-07
0.00118004
-0.0011323
-1.21716e-06
-3.38353e-07
1.54267e-07
0.00113253
-2.38808e-07
1.20421e-06
2.10517e-07
8.58928e-07
-2.13377e-07
-8.48378e-07
1.90977e-07
-0.00112899
-1.20449e-06
1.1487e-07
2.88212e-09
0.00112908
-2.1776e-07
1.19647e-06
2.24452e-07
8.0055e-07
-2.57485e-07
-8.98962e-07
1.46434e-07
-0.000270264
1.10217e-06
1.27914e-06
-2.97986e-07
-1.32645e-07
0.000268313
-3.41439e-07
6.87621e-07
-0.00118006
-9.25179e-07
3.96769e-07
0.00118024
-0.00113307
-1.19263e-06
2.16632e-07
-1.56611e-08
0.00113299
-2.12868e-07
1.22208e-06
2.32183e-07
8.17671e-07
-2.51212e-07
-9.00578e-07
1.66718e-07
-0.00113075
-1.1042e-06
-2.90936e-07
-8.37619e-07
0.00113162
-1.46432e-07
1.294e-06
2.90701e-07
8.40155e-07
-2.30552e-07
-8.76358e-07
1.91732e-07
-0.00027058
1.17722e-06
1.3559e-06
-3.15125e-07
-2.07226e-07
0.00026857
-3.85029e-07
-2.97418e-09
-0.00118069
-5.30235e-07
9.49642e-07
0.00118065
-0.00113171
-1.22372e-06
3.93731e-07
1.64024e-07
0.00113106
-2.30459e-07
1.18814e-06
2.13007e-07
8.89491e-07
-1.64018e-07
-8.24316e-07
2.47884e-07
-0.00113372
-1.16843e-06
-5.07893e-07
-2.42181e-07
0.00113393
-2.08433e-07
1.23572e-06
2.35309e-07
9.70807e-07
-9.9392e-08
-7.49697e-07
3.20977e-07
-0.000270311
1.30108e-06
1.12563e-06
-1.03878e-07
-2.66301e-07
0.000268255
5.76373e-07
-3.35657e-07
-0.00117963
4.73224e-07
-4.14306e-08
0.00117896
-0.00112938
-1.15405e-06
-4.08211e-07
-1.11412e-07
0.00112921
-1.65901e-07
1.25551e-06
2.73822e-07
9.72961e-07
-8.15594e-08
-7.28278e-07
3.16145e-07
-0.0011329
-1.19315e-06
-4.49141e-07
4.94709e-07
0.0011322
-2.14922e-07
1.21347e-06
2.31537e-07
1.00968e-06
-5.33586e-08
-6.97568e-07
3.52435e-07
-0.000269932
1.30863e-06
9.35062e-07
2.55494e-11
-2.41664e-07
0.00026793
1.02329e-06
1.42078e-07
-0.00117698
4.71006e-07
-1.23502e-06
0.00117658
-0.00113014
-1.08132e-06
-1.00469e-06
-5.02608e-07
0.00113077
-1.13926e-07
1.32329e-06
3.20027e-07
9.61218e-07
-9.93228e-08
-7.34931e-07
2.93478e-07
-0.00113038
-1.15998e-06
-2.44973e-07
2.17163e-07
0.00113009
-1.74754e-07
1.2389e-06
2.66093e-07
8.89738e-07
-1.67259e-07
-8.04493e-07
2.31906e-07
-0.00027014
1.16194e-06
1.08513e-06
-1.61228e-07
-1.45287e-07
0.0002682
1.99972e-07
5.08244e-07
-0.00117635
-3.12783e-07
-6.39196e-07
0.00117659
-0.00113279
-1.16971e-06
-2.65642e-07
-2.01539e-07
0.00113328
-2.0374e-07
1.23587e-06
2.3123e-07
8.25936e-07
-2.31734e-07
-8.78144e-07
1.69278e-07
-0.0011302
-1.14445e-06
1.11198e-07
-3.99382e-07
0.00113051
-1.67711e-07
1.25027e-06
2.6613e-07
7.95558e-07
-2.58563e-07
-9.07139e-07
1.46175e-07
-0.000270635
1.12423e-06
1.33417e-06
-3.46187e-07
-1.44999e-07
0.000268668
-5.50856e-07
2.83572e-07
-0.00117809
-6.97068e-07
3.87723e-07
0.00117866
-0.00113347
-1.29933e-06
6.48172e-07
3.82567e-07
0.00113314
-3.0834e-07
1.11452e-06
1.31906e-07
7.64999e-07
-2.83424e-07
-9.44505e-07
1.16035e-07
-0.00113174
-1.20714e-06
7.68532e-08
-2.97233e-07
0.00113211
-2.36707e-07
1.18889e-06
1.9709e-07
8.28071e-07
-2.24227e-07
-8.81019e-07
1.81524e-07
-0.000270743
1.21143e-06
1.33797e-06
-2.98546e-07
-2.20107e-07
0.000268713
-3.20963e-07
-2.09231e-07
-0.00117972
-1.49808e-07
6.11815e-07
0.00117979
-0.00113169
-1.26742e-06
4.15867e-07
3.03988e-07
0.00113124
-2.64814e-07
1.14276e-06
1.71192e-07
8.34239e-07
-2.02546e-07
-8.62253e-07
1.77338e-07
-0.00113259
-1.23436e-06
-1.55507e-07
1.86667e-07
0.00113254
-2.58273e-07
1.15695e-06
1.71566e-07
8.92196e-07
-1.44302e-07
-7.98207e-07
2.35972e-07
-0.000270534
1.30695e-06
1.13028e-06
-1.18084e-07
-2.62465e-07
0.000268478
1.19601e-06
6.95689e-07
-0.0011789
-4.40884e-07
-7.49302e-07
0.0011782
-0.00113066
-1.05146e-06
-1.20035e-06
-5.70543e-07
0.00113105
-7.45646e-08
1.42125e-06
3.60169e-07
1.06547e-06
-2.02739e-08
-6.69075e-07
3.51236e-07
-0.00113213
-1.08032e-06
-1.19619e-06
-2.13271e-07
0.00113229
-1.14003e-07
1.38113e-06
3.25752e-07
1.0647e-06
-2.41958e-08
-6.63554e-07
3.54262e-07
-0.000270416
1.18986e-06
9.54589e-07
6.49833e-09
-1.34381e-07
0.000268399
5.54947e-06
5.46264e-06
-0.00116379
-1.1426e-05
-1.20013e-05
0.00028345
0.000285259
0.00028518
0.000285184
4.59171e-06
6.835e-06
7.25374e-06
4.51378e-06
6.76129e-06
7.18082e-06
-0.000280436
5.48249e-06
-5.55776e-06
6.02621e-06
-3.49855e-06
0.000277984
-0.000280551
-5.49661e-06
5.44549e-06
-3.44935e-06
5.98163e-06
0.00027807
-0.0002714
-5.41421e-06
-5.4681e-06
5.78044e-06
5.75976e-06
0.000270742
1.28198e-06
1.24478e-06
-2.32529e-07
-2.40279e-07
0.00026947
-1.25597e-06
-1.2188e-06
0.00027138
-0.000269364
2.25149e-07
2.33004e-07
7.17992e-08
0.00113948
-2.5606e-07
1.25509e-06
2.31871e-07
8.54044e-07
-2.44108e-07
-9.00249e-07
1.96308e-07
-1.28762e-06
2.19101e-07
7.20574e-08
0.00113993
-2.58878e-07
1.26064e-06
2.34644e-07
8.59639e-07
-2.46899e-07
-9.05876e-07
1.99085e-07
0.00113905
2.00173e-07
-0.00113919
6.42027e-08
-1.2779e-06
2.33175e-07
-2.5285e-07
-8.95453e-07
1.98759e-07
-2.39865e-07
8.56155e-07
1.26155e-06
0.0011395
2.00386e-07
-0.00113964
6.42665e-08
-1.28351e-06
2.35976e-07
-2.55644e-07
-9.01112e-07
2.01513e-07
-2.42685e-07
8.61716e-07
-2.35257e-07
-2.37611e-07
0.000269492
-1.22155e-06
0.00027141
-0.000269386
2.27968e-07
2.30245e-07
7.12404e-08
0.0011406
-2.53314e-07
1.2179e-06
2.29361e-07
8.56988e-07
-2.46766e-07
-9.02932e-07
1.99266e-07
-1.28211e-06
2.18938e-07
7.21125e-08
0.00113958
-2.5888e-07
1.25507e-06
2.34624e-07
8.56761e-07
-2.46829e-07
-9.02984e-07
1.99078e-07
0.00114017
2.00045e-07
-0.00114031
6.37452e-08
-1.24072e-06
2.30668e-07
-2.50109e-07
-8.98151e-07
2.01701e-07
-2.42529e-07
8.59071e-07
1.256e-06
0.00113915
2.00216e-07
-0.0011393
6.42843e-08
-1.27798e-06
2.35966e-07
-2.55625e-07
-8.98221e-07
2.01535e-07
-2.42574e-07
8.58842e-07
2.18883e-07
7.18893e-08
0.00113938
-2.53258e-07
1.24956e-06
2.29094e-07
8.54053e-07
-2.44086e-07
1.96319e-07
-9.00274e-07
2.00234e-07
-0.00114004
6.37414e-08
-1.24339e-06
2.2786e-07
-2.47308e-07
-8.95471e-07
1.98908e-07
8.56241e-07
-2.3983e-07
1.25047e-06
0.00113895
2.0028e-07
-0.00113909
6.42347e-08
-1.27242e-06
2.30411e-07
-2.50032e-07
-8.95503e-07
1.98749e-07
-2.39861e-07
8.56133e-07
-2.32679e-07
-2.40161e-07
0.000269451
-1.21597e-06
0.000271358
-0.000269344
2.25363e-07
2.32772e-07
2.18861e-07
7.1351e-08
0.00114049
-2.50574e-07
1.21516e-06
2.26587e-07
8.54309e-07
-2.46767e-07
1.99222e-07
-9.00295e-07
2.00044e-07
-0.00113967
6.37342e-08
-1.23784e-06
2.27861e-07
-2.47303e-07
-8.95262e-07
2.01605e-07
8.56157e-07
-2.4246e-07
1.21604e-06
0.00114006
2.00079e-07
-0.0011402
6.39189e-08
-1.238e-06
2.27883e-07
-2.47381e-07
-8.95508e-07
2.01666e-07
-2.42525e-07
8.56403e-07
-0.000269357
2.27677e-07
2.33001e-07
1.27661e-06
1.23941e-06
-2.2861e-07
-2.36355e-07
0.000269329
-1.25704e-06
-1.21987e-06
0.000271245
-0.000269229
2.26479e-07
2.34362e-07
6.18922e-08
0.00113891
-2.51838e-07
1.25623e-06
2.33569e-07
8.56802e-07
-2.38504e-07
-8.93933e-07
1.99537e-07
-1.2822e-06
1.94335e-07
6.18126e-08
0.00113936
-2.54621e-07
1.26182e-06
2.36378e-07
8.62384e-07
-2.41314e-07
-8.99576e-07
2.02301e-07
0.00113849
1.76119e-07
-0.00113863
5.48162e-08
-1.27279e-06
2.34779e-07
-2.4884e-07
-8.89437e-07
2.01849e-07
-2.34495e-07
8.58782e-07
1.26264e-06
0.00113894
1.76166e-07
-0.00113908
5.46051e-08
-1.27837e-06
2.37589e-07
-2.51621e-07
-8.95052e-07
2.04644e-07
-2.37275e-07
8.64388e-07
-2.31326e-07
-2.33664e-07
0.000269351
-1.22263e-06
0.000271276
-0.000269251
2.29314e-07
2.31614e-07
6.13271e-08
0.00114003
-2.49081e-07
1.21908e-06
2.31082e-07
8.59737e-07
-2.41164e-07
-8.96622e-07
2.02488e-07
-1.27667e-06
1.94108e-07
6.18751e-08
0.00113901
-2.54605e-07
1.25627e-06
2.36369e-07
8.59516e-07
-2.412e-07
-8.96682e-07
2.02328e-07
0.00113961
1.76132e-07
-0.00113975
5.4307e-08
-1.23563e-06
2.32243e-07
-2.46119e-07
-8.92132e-07
2.04796e-07
-2.37154e-07
8.61703e-07
1.25704e-06
0.00113859
1.76285e-07
-0.00113873
5.48584e-08
-1.27288e-06
2.37531e-07
-2.51647e-07
-8.922e-07
2.04623e-07
-2.37202e-07
8.61472e-07
1.94233e-07
6.19082e-08
0.00113881
-2.49027e-07
1.25072e-06
2.30797e-07
8.56798e-07
-2.38494e-07
1.99536e-07
-8.93971e-07
1.75884e-07
-0.00113948
5.42443e-08
-1.2383e-06
2.29449e-07
-2.43314e-07
-8.89411e-07
2.02051e-07
8.58918e-07
-2.34409e-07
1.25152e-06
0.00113839
1.76124e-07
-0.00113853
5.48658e-08
-1.26732e-06
2.31996e-07
-2.46045e-07
-8.89474e-07
2.01855e-07
-2.34477e-07
8.58777e-07
-2.28753e-07
-2.36197e-07
0.00026931
-1.21705e-06
0.000271223
-0.00026921
2.26715e-07
2.34087e-07
1.93999e-07
6.14599e-08
0.00113992
-2.46349e-07
1.21632e-06
2.28301e-07
8.57066e-07
-2.41159e-07
2.0245e-07
-8.93977e-07
1.75915e-07
-0.00113911
5.43596e-08
-1.23275e-06
2.29462e-07
-2.433e-07
-8.89245e-07
2.0469e-07
8.58784e-07
-2.37091e-07
1.21713e-06
0.0011395
1.76041e-07
-0.00113964
5.44281e-08
-1.2329e-06
2.29481e-07
-2.43373e-07
-8.89491e-07
2.04766e-07
-2.37146e-07
8.59036e-07
-0.000269223
2.29024e-07
2.34339e-07
1.27154e-06
1.23442e-06
-2.25013e-07
-2.32704e-07
0.000269197
-1.25799e-06
-1.22085e-06
0.00027112
-0.000269104
2.277e-07
2.35548e-07
5.24569e-08
0.00113836
-2.47869e-07
1.25731e-06
2.35161e-07
8.59404e-07
-2.33203e-07
-8.87993e-07
2.02589e-07
-1.27714e-06
1.70267e-07
5.23997e-08
0.00113881
-2.50669e-07
1.26288e-06
2.3795e-07
8.65024e-07
-2.35974e-07
-8.93593e-07
2.05389e-07
0.00113796
1.52499e-07
-0.00113809
4.58161e-08
-1.268e-06
2.36196e-07
-2.45128e-07
-8.83699e-07
2.04845e-07
-2.29348e-07
8.61333e-07
1.26354e-06
0.0011384
1.52776e-07
-0.00113854
4.60817e-08
-1.27363e-06
2.38973e-07
-2.47947e-07
-8.89344e-07
2.07595e-07
-2.32166e-07
8.66901e-07
-2.27706e-07
-2.30022e-07
0.000269219
-1.22356e-06
0.00027115
-0.000269126
2.30504e-07
2.32791e-07
5.2087e-08
0.00113947
-2.45172e-07
1.22011e-06
2.32612e-07
8.62368e-07
-2.35833e-07
-8.90655e-07
2.0557e-07
-1.27167e-06
1.70279e-07
5.26655e-08
0.00113846
-2.50698e-07
1.25728e-06
2.37897e-07
8.62133e-07
-2.35886e-07
-8.90728e-07
2.05394e-07
0.00113907
1.5235e-07
-0.0011392
4.5454e-08
-1.23086e-06
2.33683e-07
-2.42394e-07
-8.86398e-07
2.07765e-07
-2.32022e-07
8.64236e-07
1.258e-06
0.00113806
1.52498e-07
-0.00113819
4.59746e-08
-1.26809e-06
2.38973e-07
-2.47918e-07
-8.86463e-07
2.07593e-07
-2.3207e-07
8.6401e-07
1.70251e-07
5.25576e-08
0.00113825
-2.45079e-07
1.25178e-06
2.32375e-07
8.59412e-07
-2.33181e-07
2.02599e-07
-8.8802e-07
1.52443e-07
-0.00113893
4.56611e-08
-1.23356e-06
2.30858e-07
-2.39619e-07
-8.83696e-07
2.05013e-07
8.61443e-07
-2.29292e-07
1.25247e-06
0.00113785
1.52508e-07
-0.00113798
4.59088e-08
-1.26254e-06
2.33424e-07
-2.42325e-07
-8.83747e-07
2.04836e-07
-2.29346e-07
8.61318e-07
-2.25119e-07
-2.32602e-07
0.000269178
-1.21801e-06
0.000271097
-0.000269084
2.27903e-07
2.35305e-07
1.70029e-07
5.21757e-08
0.00113937
-2.42417e-07
1.21738e-06
2.29857e-07
8.59688e-07
-2.35832e-07
2.05528e-07
-8.88022e-07
1.52327e-07
-0.00113856
4.54901e-08
-1.22799e-06
2.30871e-07
-2.39596e-07
-8.83523e-07
2.07664e-07
8.61318e-07
-2.31959e-07
1.21809e-06
0.00113896
1.52439e-07
-0.0011391
4.55977e-08
-1.22814e-06
2.30901e-07
-2.39665e-07
-8.83775e-07
2.07731e-07
-2.32023e-07
8.6156e-07
-0.000269097
2.30221e-07
2.35541e-07
1.26687e-06
1.22975e-06
-2.21659e-07
-2.29382e-07
0.000269074
-1.25875e-06
-1.22171e-06
0.000271002
-0.000268987
2.28752e-07
2.36562e-07
4.37881e-08
0.00113782
-2.44256e-07
1.25819e-06
2.36515e-07
8.61931e-07
-2.28117e-07
-8.82325e-07
2.05548e-07
-1.27248e-06
1.47023e-07
4.39798e-08
0.00113827
-2.47062e-07
1.26375e-06
2.39304e-07
8.67509e-07
-2.3093e-07
-8.87963e-07
2.08305e-07
0.00113744
1.29908e-07
-0.00113756
3.81753e-08
-1.26363e-06
2.37419e-07
-2.41752e-07
-8.78307e-07
2.07629e-07
-2.2452e-07
8.63717e-07
1.26435e-06
0.00113789
1.30309e-07
-0.00113801
3.7936e-08
-1.2692e-06
2.40235e-07
-2.44528e-07
-8.83956e-07
2.10366e-07
-2.27348e-07
8.69279e-07
-2.24371e-07
-2.26697e-07
0.000269096
-1.22437e-06
0.000271032
-0.000269009
2.31519e-07
2.3382e-07
4.35715e-08
0.00113894
-2.41542e-07
1.22103e-06
2.33982e-07
8.64853e-07
-2.30781e-07
-8.8502e-07
2.0849e-07
-1.26695e-06
1.46773e-07
4.3934e-08
0.00113792
-2.47041e-07
1.25821e-06
2.39296e-07
8.64618e-07
-2.30838e-07
-8.85093e-07
2.0831e-07
0.00113855
1.30012e-07
-0.00113868
3.73509e-08
-1.22643e-06
2.34982e-07
-2.38953e-07
-8.81007e-07
2.10535e-07
-2.27197e-07
8.66616e-07
1.2588e-06
0.00113754
1.30373e-07
-0.00113767
3.80126e-08
-1.26367e-06
2.40218e-07
-2.44509e-07
-8.811e-07
2.10338e-07
-2.27273e-07
8.66364e-07
1.4687e-07
4.38447e-08
0.00113772
-2.4145e-07
1.25268e-06
2.33746e-07
8.61921e-07
-2.28115e-07
2.0554e-07
-8.82371e-07
1.30031e-07
-0.00113841
3.7681e-08
-1.22917e-06
2.32098e-07
-2.36227e-07
-8.78326e-07
2.07772e-07