/*--------------------------------*- C++ -*----------------------------------*\
| =========                 |                                                 |
| \\      /  F ield         | OpenFOAM: The Open Source CFD Toolbox           |
|  \\    /   O peration     | Version:  v2012                                 |
|   \\  /    A nd           | Website:  www.openfoam.com                      |
|    \\/     M anipulation  |                                                 |
\*---------------------------------------------------------------------------*/
FoamFile
{
    version     2.0;
    format      ascii;
    class       volVectorField;
    location    "750";
    object      U;
}
// * * * * * * * * * * * * * * * * * * * * * * * * * * * * * * * * * * * * * //

dimensions      [0 1 -1 0 0 0 0];


internalField   nonuniform List<vector> 
85864
(
(2.4003e-05 2.40171e-05 0.113152)
(-1.67677e-05 1.01234e-05 0.108269)
(1.00999e-05 -1.67717e-05 0.108268)
(-4.78746e-05 -4.7892e-05 0.10472)
(2.1918e-05 2.19423e-05 0.113168)
(-1.44047e-05 8.75899e-06 0.108214)
(8.75075e-06 -1.43908e-05 0.108213)
(-4.60064e-05 -4.60132e-05 0.104666)
(1.98397e-05 1.98445e-05 0.113177)
(-1.21278e-05 7.4962e-06 0.108161)
(7.48611e-06 -1.21292e-05 0.10816)
(-4.4264e-05 -4.4268e-05 0.104616)
(1.76927e-05 1.77143e-05 0.113179)
(-9.95363e-06 6.33503e-06 0.108111)
(6.32501e-06 -9.93949e-06 0.10811)
(-4.26549e-05 -4.26533e-05 0.104569)
(1.56601e-05 1.56083e-05 0.113176)
(-7.91674e-06 5.24348e-06 0.108062)
(5.24924e-06 -7.91768e-06 0.108061)
(-4.11504e-05 -4.11637e-05 0.104526)
(1.34796e-05 1.35034e-05 0.113166)
(-5.97209e-06 4.21941e-06 0.108015)
(4.19941e-06 -5.97258e-06 0.108014)
(-3.97707e-05 -3.97767e-05 0.104486)
(1.15846e-05 1.15882e-05 0.113153)
(-4.18076e-06 3.31185e-06 0.10797)
(3.30705e-06 -4.16884e-06 0.107969)
(-3.85176e-05 -3.8531e-05 0.104448)
(9.64508e-06 9.60175e-06 0.113135)
(-2.43431e-06 2.38706e-06 0.107928)
(2.38449e-06 -2.43799e-06 0.107927)
(-3.72895e-05 -3.72519e-05 0.104414)
(7.61447e-06 7.70074e-06 0.113113)
(-8.24465e-07 1.54507e-06 0.107888)
(1.5554e-06 -8.4923e-07 0.107887)
(-3.61792e-05 -3.62333e-05 0.104383)
(5.77201e-06 5.74939e-06 0.113088)
(5.16896e-07 8.07354e-07 0.10785)
(7.87891e-07 5.45522e-07 0.107849)
(-3.51735e-05 -3.51566e-05 0.104355)
(4.03893e-06 4.0114e-06 0.113061)
(2.06146e-06 1.52756e-07 0.107814)
(1.03534e-07 2.03538e-06 0.107813)
(-3.42254e-05 -3.41815e-05 0.104329)
(2.41394e-06 2.52568e-06 0.113031)
(3.33859e-06 -5.41229e-07 0.10778)
(-4.93385e-07 3.41726e-06 0.10778)
(-3.33512e-05 -3.3362e-05 0.104306)
(7.41354e-07 6.3252e-07 0.112998)
(4.45134e-06 -1.1677e-06 0.107749)
(-1.13599e-06 4.35732e-06 0.107748)
(-3.24952e-05 -3.25063e-05 0.104285)
(-7.32792e-07 -7.78078e-07 0.112966)
(5.19995e-06 -1.71996e-06 0.10772)
(-1.90688e-06 5.2618e-06 0.107719)
(-3.16941e-05 -3.17449e-05 0.104267)
(-1.94353e-06 -1.38363e-06 0.112931)
(6.59766e-06 -1.99504e-06 0.107692)
(-1.9461e-06 6.59195e-06 0.107691)
(-3.10288e-05 -3.08669e-05 0.10425)
(-2.89032e-06 -4.1781e-06 0.112894)
(7.30163e-06 -3.21237e-06 0.107667)
(-2.73058e-06 7.07311e-06 0.107666)
(-3.03619e-05 -3.06562e-05 0.104237)
(-4.93287e-06 -3.22727e-06 0.112859)
(7.12433e-06 -2.72102e-06 0.107644)
(-3.49097e-06 7.76851e-06 0.107644)
(-3.0111e-05 -2.96228e-05 0.104226)
(-4.76043e-06 -6.29836e-06 0.112822)
(8.91729e-06 -3.74589e-06 0.107622)
(-3.34465e-06 8.04418e-06 0.107621)
(-2.88307e-05 -2.97391e-05 0.104216)
(-6.79523e-06 -5.902e-06 0.112786)
(9.31137e-06 -4.38929e-06 0.107601)
(-4.39927e-06 9.61952e-06 0.107598)
(-2.8669e-05 -2.8108e-05 0.104206)
(-6.09059e-06 -6.08857e-06 0.112741)
(1.06296e-05 -4.81497e-06 0.107578)
(-4.2491e-06 1.09622e-05 0.107578)
(-2.81889e-05 -2.7466e-05 0.104196)
(-1.06196e-05 -1.22316e-05 0.112699)
(1.03131e-05 -5.39867e-06 0.107567)
(-5.53608e-06 9.97064e-06 0.107566)
(-2.76088e-05 -2.89404e-05 0.1042)
(-9.84517e-06 -5.96401e-06 0.112674)
(7.69193e-06 -2.66551e-06 0.107556)
(-5.17378e-06 8.52196e-06 0.107559)
(-2.84952e-05 -2.74777e-05 0.104203)
(-2.88397e-06 -7.57054e-06 0.112639)
(1.14949e-05 -1.11923e-05 0.10754)
(-6.04046e-06 1.07744e-05 0.107533)
(-2.58047e-05 -2.96568e-05 0.104181)
(-8.22352e-06 -1.43315e-05 0.112579)
(1.7904e-05 -9.82251e-07 0.107521)
(8.45455e-07 1.35043e-05 0.1075)
(-2.82596e-05 -2.38672e-05 0.104172)
(-1.93198e-05 3.50502e-06 0.112559)
(-2.29612e-06 7.19425e-06 0.1075)
(-8.23625e-06 6.9909e-06 0.107525)
(-3.63822e-05 -2.42252e-05 0.104216)
(-1.31978e-05 -2.40979e-05 0.112553)
(3.28838e-06 -2.76292e-05 0.107538)
(-1.78995e-05 4.94144e-06 0.107583)
(-2.00289e-05 -4.83215e-05 0.104237)
(1.54018e-05 -3.44446e-05 0.112511)
(4.32395e-05 -1.39144e-05 0.107561)
(9.6852e-06 2.061e-05 0.107461)
(-5.11925e-06 -1.43291e-05 0.104153)
(-3.65737e-05 2.06941e-05 0.112351)
(3.85566e-05 9.65303e-06 0.107343)
(-1.52289e-05 4.27478e-05 0.107282)
(-2.26333e-05 2.88876e-05 0.104081)
(-6.43172e-05 -2.72911e-05 0.112218)
(-7.47947e-07 -2.45789e-05 0.107293)
(-3.94492e-05 3.05175e-05 0.107432)
(-2.32929e-05 -4.92276e-05 0.104199)
(-4.21768e-06 -8.9738e-05 0.112298)
(-8.44101e-06 -3.21119e-05 0.107658)
(1.41163e-05 -3.57414e-05 0.1077)
(-3.80512e-05 -0.00010626 0.104416)
(8.89018e-05 3.95248e-05 0.112585)
(-3.21572e-05 4.66199e-05 0.10782)
(5.61011e-05 -6.36167e-05 0.107577)
(-6.82888e-05 -1.46114e-05 0.104322)
(2.25677e-05 0.000148913 0.112512)
(2.32291e-05 5.92496e-05 0.107374)
(6.85059e-06 4.84819e-05 0.107305)
(-4.1935e-05 4.93277e-05 0.104093)
(-8.48172e-05 -6.82548e-05 0.112032)
(5.5734e-05 -8.23467e-05 0.107178)
(-8.94911e-05 9.00712e-05 0.107337)
(3.28814e-05 -2.38783e-05 0.104113)
(-8.44698e-05 -0.00017745 0.111961)
(5.14988e-05 -8.13772e-05 0.107398)
(-3.91695e-05 1.41362e-05 0.107396)
(2.8908e-06 -3.7365e-05 0.104216)
(-2.9454e-05 9.15084e-06 0.11214)
(1.49555e-05 5.78799e-05 0.107505)
(3.99512e-05 6.66485e-06 0.10742)
(-6.55847e-05 2.2053e-06 0.1043)
(4.32585e-07 8.23626e-05 0.112155)
(-3.18696e-05 1.75946e-05 0.107457)
(-1.6258e-05 6.91817e-06 0.107618)
(-3.77424e-05 -4.41055e-05 0.104398)
(4.2935e-05 -1.65734e-05 0.11211)
(-2.45471e-05 -3.92462e-05 0.107453)
(-1.79398e-05 -2.02577e-05 0.107665)
(-4.5803e-06 -8.40256e-05 0.104328)
(6.45559e-05 -4.43263e-05 0.112137)
(2.06386e-05 1.25386e-05 0.107457)
(4.83929e-05 -1.05429e-05 0.107374)
(-2.37442e-05 -2.42429e-05 0.104199)
(-2.00629e-05 -1.92832e-05 0.112112)
(1.80953e-05 3.96377e-06 0.107511)
(-2.20589e-07 -9.83757e-06 0.107218)
(-6.45913e-05 8.70738e-06 0.104287)
(-9.15296e-05 3.44917e-05 0.112118)
(-1.91698e-05 -7.97102e-06 0.107575)
(-5.73034e-05 7.56031e-06 0.107429)
(-8.4329e-05 -1.95687e-05 0.104394)
(-2.18022e-05 7.02731e-05 0.112172)
(-1.14181e-05 1.88761e-05 0.107417)
(-1.25128e-05 3.61738e-05 0.107688)
(-5.03981e-07 -5.52728e-05 0.104282)
(5.14463e-05 -3.42756e-05 0.112043)
(4.61074e-05 -9.11219e-06 0.107211)
(2.13623e-05 5.49235e-05 0.107562)
(6.01992e-05 -5.34847e-05 0.10415)
(1.04546e-05 -0.000121537 0.1118)
(6.85018e-05 -5.34689e-05 0.107327)
(-4.62699e-06 2.63264e-05 0.107337)
(-9.55571e-07 -7.38886e-06 0.104244)
(-5.32056e-05 -4.9107e-05 0.111775)
(4.27609e-06 -2.29588e-05 0.10758)
(-3.34844e-05 -1.51865e-05 0.107352)
(-8.47224e-05 1.4662e-06 0.104429)
(-5.29721e-05 4.98054e-05 0.111966)
(-4.95131e-05 3.82606e-05 0.107607)
(-7.64782e-06 -1.18771e-05 0.107508)
(-7.86234e-05 -2.86212e-05 0.104457)
(9.90904e-06 5.36578e-05 0.112106)
(-2.18711e-05 3.64039e-05 0.10743)
(2.42093e-05 1.06254e-05 0.107571)
(-2.95463e-06 -5.53432e-05 0.104379)
(2.30345e-05 -2.47729e-05 0.112021)
(2.74637e-05 -1.21214e-05 0.107328)
(8.29114e-06 2.67487e-05 0.107492)
(3.26106e-05 -3.29596e-05 0.104348)
(-2.6393e-05 -8.10529e-05 0.11196)
(0.000123037 -8.68168e-05 0.10766)
(-6.55896e-05 0.000105215 0.107705)
(5.97481e-05 5.15665e-05 0.104718)
(4.7876e-05 4.78643e-05 0.10472)
(-4.34146e-05 -4.33945e-05 0.104836)
(1.01504e-05 1.68186e-05 0.108266)
(-1.01776e-05 1.68376e-05 0.108266)
(9.12701e-06 1.50307e-05 0.108225)
(-9.13753e-06 1.50569e-05 0.108225)
(-4.78892e-05 4.7848e-05 0.10472)
(4.34114e-05 -4.34046e-05 0.104837)
(1.67502e-05 1.0103e-05 0.108268)
(1.6821e-05 -1.01718e-05 0.108265)
(1.49686e-05 9.08367e-06 0.108227)
(1.50365e-05 -9.12713e-06 0.108224)
(-1.68082e-05 -1.01455e-05 0.108266)
(-1.49874e-05 9.07993e-06 0.108228)
(-1.50364e-05 -9.11516e-06 0.108225)
(4.7853e-05 -4.79157e-05 0.10472)
(-4.3398e-05 4.34151e-05 0.104836)
(-1.00971e-05 -1.67634e-05 0.108267)
(9.07584e-06 -1.49715e-05 0.108227)
(-9.0858e-06 -1.49727e-05 0.108226)
(4.33892e-05 4.34041e-05 0.104836)
(4.60038e-05 4.59918e-05 0.104666)
(-4.37341e-05 -4.37029e-05 0.104782)
(8.80805e-06 1.44592e-05 0.108212)
(-8.81032e-06 1.44768e-05 0.108211)
(7.84426e-06 1.27564e-05 0.108172)
(-7.84053e-06 1.2765e-05 0.108171)
(-4.60066e-05 4.59692e-05 0.104666)
(4.37341e-05 -4.37168e-05 0.104783)
(1.43921e-05 8.75442e-06 0.108213)
(1.44574e-05 -8.80047e-06 0.10821)
(1.2691e-05 7.80888e-06 0.108174)
(1.27607e-05 -7.85296e-06 0.108171)
(-1.44547e-05 -8.79785e-06 0.108211)
(-1.26888e-05 7.79843e-06 0.108174)
(-1.27532e-05 -7.83872e-06 0.108171)
(4.59807e-05 -4.60254e-05 0.104666)
(-4.37146e-05 4.37188e-05 0.104782)
(-8.75399e-06 -1.43963e-05 0.108213)
(7.79886e-06 -1.26887e-05 0.108173)
(-7.80313e-06 -1.2691e-05 0.108173)
(4.37055e-05 4.3715e-05 0.104782)
(4.425e-05 4.42587e-05 0.104616)
(-4.40002e-05 -4.39785e-05 0.104732)
(7.53098e-06 1.22047e-05 0.108159)
(-7.53941e-06 1.22076e-05 0.108158)
(6.64027e-06 1.05417e-05 0.108121)
(-6.66558e-06 1.05683e-05 0.10812)
(-4.42562e-05 4.42294e-05 0.104616)
(4.39924e-05 -4.39815e-05 0.104733)
(1.21168e-05 7.5054e-06 0.108161)
(1.21892e-05 -7.55287e-06 0.108158)
(1.04811e-05 6.60793e-06 0.108122)
(1.05509e-05 -6.64784e-06 0.108119)
(-1.21947e-05 -7.53022e-06 0.108158)
(-1.04855e-05 6.6175e-06 0.108123)
(-1.05428e-05 -6.63585e-06 0.10812)
(4.42327e-05 -4.42933e-05 0.104616)
(-4.39798e-05 4.39945e-05 0.104732)
(-7.49575e-06 -1.21258e-05 0.10816)
(6.6006e-06 -1.04844e-05 0.108122)
(-6.60679e-06 -1.04877e-05 0.108122)
(4.39736e-05 4.3986e-05 0.104732)
(4.2643e-05 4.26398e-05 0.10457)
(-4.42112e-05 -4.42128e-05 0.104685)
(6.35987e-06 1.00191e-05 0.108108)
(-6.3799e-06 1.00391e-05 0.108107)
(5.56796e-06 8.4649e-06 0.108071)
(-5.56057e-06 8.50032e-06 0.10807)
(-4.26505e-05 4.26199e-05 0.10457)
(4.42137e-05 -4.4197e-05 0.104686)
(9.94207e-06 6.33969e-06 0.10811)
(1.00165e-05 -6.36606e-06 0.108107)
(8.42829e-06 5.48891e-06 0.108073)
(8.51223e-06 -5.54975e-06 0.10807)
(-1.00193e-05 -6.35375e-06 0.108108)
(-8.42558e-06 5.5222e-06 0.108074)
(-8.46855e-06 -5.55031e-06 0.108071)
(4.263e-05 -4.26694e-05 0.104569)
(-4.41908e-05 4.42161e-05 0.104685)
(-6.33972e-06 -9.94325e-06 0.108109)
(5.52688e-06 -8.42001e-06 0.108073)
(-5.4999e-06 -8.42134e-06 0.108072)
(4.42011e-05 4.42017e-05 0.104685)
(4.11561e-05 4.11309e-05 0.104526)
(-4.4408e-05 -4.4363e-05 0.104642)
(5.29272e-06 7.97128e-06 0.108059)
(-5.28255e-06 8.00009e-06 0.108058)
(4.49419e-06 6.49405e-06 0.108024)
(-4.53412e-06 6.50077e-06 0.108023)
(-4.11546e-05 4.11303e-05 0.104526)
(4.43947e-05 -4.43938e-05 0.104642)
(7.9339e-06 5.23317e-06 0.108061)
(8.01468e-06 -5.28455e-06 0.108058)
(6.40877e-06 4.48399e-06 0.108025)
(6.45476e-06 -4.5264e-06 0.108023)
(-7.97429e-06 -5.27926e-06 0.108059)
(-6.42733e-06 4.46697e-06 0.108026)
(-6.495e-06 -4.49416e-06 0.108023)
(4.11406e-05 -4.11789e-05 0.104526)
(-4.44191e-05 4.43878e-05 0.104641)
(-5.24176e-06 -7.9206e-06 0.10806)
(4.42874e-06 -6.42033e-06 0.108025)
(-4.4633e-06 -6.42285e-06 0.108025)
(4.43767e-05 4.4392e-05 0.104641)
(3.97613e-05 3.97727e-05 0.104486)
(-4.45114e-05 -4.45104e-05 0.104602)
(4.23973e-06 6.0003e-06 0.108013)
(-4.28584e-06 6.03853e-06 0.108012)
(3.59928e-06 4.70318e-06 0.107979)
(-3.56997e-06 4.70689e-06 0.107978)
(-3.97798e-05 3.9742e-05 0.104486)
(4.45369e-05 -4.45106e-05 0.104602)
(5.93843e-06 4.20924e-06 0.108014)
(6.0046e-06 -4.28762e-06 0.108011)
(4.64402e-06 3.54414e-06 0.107981)
(4.70399e-06 -3.56354e-06 0.107978)
(-6.01262e-06 -4.248e-06 0.108012)
(-4.60864e-06 3.54812e-06 0.107981)
(-4.69429e-06 -3.59878e-06 0.107978)
(3.9725e-05 -3.98061e-05 0.104486)
(-4.44958e-05 4.45403e-05 0.104601)
(-4.19674e-06 -5.95064e-06 0.108013)
(3.54889e-06 -4.61582e-06 0.10798)
(-3.5436e-06 -4.64159e-06 0.10798)
(4.45023e-05 4.44943e-05 0.104601)
(3.85232e-05 3.85021e-05 0.104449)
(-4.47283e-05 -4.47016e-05 0.104565)
(3.363e-06 4.28078e-06 0.107968)
(-3.35175e-06 4.27101e-06 0.107967)
(2.63589e-06 2.9114e-06 0.107936)
(-2.62329e-06 2.94617e-06 0.107935)
(-3.84982e-05 3.84794e-05 0.104449)
(4.47174e-05 -4.47057e-05 0.104565)
(4.22085e-06 3.30095e-06 0.10797)
(4.26539e-06 -3.32687e-06 0.107967)
(2.87515e-06 2.602e-06 0.107937)
(2.99233e-06 -2.63422e-06 0.107934)
(-4.26486e-06 -3.34795e-06 0.107967)
(-2.8975e-06 2.60412e-06 0.107938)
(-2.95921e-06 -2.6302e-06 0.107935)
(3.84947e-05 -3.85071e-05 0.104449)
(-4.46618e-05 4.46983e-05 0.104564)
(-3.30514e-06 -4.20379e-06 0.107969)
(2.62529e-06 -2.90778e-06 0.107937)
(-2.62264e-06 -2.89551e-06 0.107937)
(4.46645e-05 4.47041e-05 0.104564)
(3.72295e-05 3.72515e-05 0.104415)
(-4.47509e-05 -4.47317e-05 0.10453)
(2.3852e-06 2.48149e-06 0.107926)
(-2.37284e-06 2.50813e-06 0.107925)
(1.8122e-06 1.32899e-06 0.107895)
(-1.79498e-06 1.2805e-06 0.107894)
(-3.72355e-05 3.72237e-05 0.104415)
(4.47646e-05 -4.47725e-05 0.104531)
(2.42821e-06 2.41449e-06 0.107927)
(2.54715e-06 -2.37909e-06 0.107924)
(1.20011e-06 1.79431e-06 0.107897)
(1.18346e-06 -1.80673e-06 0.107894)
(-2.51557e-06 -2.37314e-06 0.107925)
(-1.20244e-06 1.73593e-06 0.107897)
(-1.29608e-06 -1.79143e-06 0.107894)
(3.72671e-05 -3.72824e-05 0.104414)
(-4.48199e-05 4.47644e-05 0.10453)
(-2.41496e-06 -2.42705e-06 0.107926)
(1.69349e-06 -1.17265e-06 0.107897)
(-1.73476e-06 -1.19858e-06 0.107896)
(4.47673e-05 4.47509e-05 0.10453)
(3.62318e-05 3.61881e-05 0.104383)
(-4.484e-05 -4.48514e-05 0.1045)
(1.66736e-06 9.13386e-07 0.107885)
(-1.63115e-06 8.65517e-07 0.107885)
(1.00122e-06 -2.20593e-07 0.107857)
(-1.08823e-06 -1.09922e-07 0.107856)
(-3.62122e-05 3.61544e-05 0.104383)
(4.48017e-05 -4.48046e-05 0.1045)
(8.63585e-07 1.54355e-06 0.107887)
(8.23647e-07 -1.66065e-06 0.107884)
(-2.37328e-07 9.32919e-07 0.107859)
(-7.24564e-08 -1.06967e-06 0.107855)
(-9.0069e-07 -1.65512e-06 0.107885)
(1.92984e-07 1.01132e-06 0.107859)
(1.71137e-07 -1.01892e-06 0.107856)
(3.61309e-05 -3.62358e-05 0.104383)
(-4.47798e-05 4.48201e-05 0.104499)
(-1.52191e-06 -8.75419e-07 0.107886)
(1.03414e-06 1.94111e-07 0.107858)
(-9.84128e-07 2.68944e-07 0.107858)
(4.48244e-05 4.4843e-05 0.104499)
(3.51585e-05 3.51559e-05 0.104355)
(-4.49484e-05 -4.48751e-05 0.104471)
(8.49316e-07 -5.24766e-07 0.107848)
(-9.18459e-07 -4.56258e-07 0.107847)
(2.67522e-07 -1.62952e-06 0.107821)
(-2.67286e-07 -1.62393e-06 0.10782)
(-3.52098e-05 3.51669e-05 0.104355)
(4.49734e-05 -4.49067e-05 0.104471)
(-5.99202e-07 8.13821e-07 0.107849)
(-4.69753e-07 -8.89752e-07 0.107846)
(-1.64287e-06 3.03233e-07 0.107822)
(-1.61906e-06 -2.64403e-07 0.107819)
(4.95437e-07 -8.63997e-07 0.107847)
(1.6897e-06 2.84048e-07 0.107823)
(1.60094e-06 -3.00019e-07 0.10782)
(3.51661e-05 -3.52014e-05 0.104355)
(-4.49014e-05 4.49286e-05 0.104471)
(-8.28581e-07 6.20211e-07 0.107849)
(2.35908e-07 1.66581e-06 0.107822)
(-2.9168e-07 1.59412e-06 0.107821)
(4.48701e-05 4.48887e-05 0.10447)
(3.41289e-05 3.42127e-05 0.104329)
(-4.48674e-05 -4.48847e-05 0.104445)
(1.58631e-08 -1.96385e-06 0.107812)
(-5.73685e-08 -1.92877e-06 0.107811)
(-2.4952e-07 -2.92298e-06 0.107786)
(3.43874e-07 -2.96913e-06 0.107786)
(-3.41182e-05 3.41825e-05 0.104329)
(4.49217e-05 -4.49153e-05 0.104446)
(-2.06931e-06 1.56218e-07 0.107813)
(-1.94339e-06 -7.56635e-08 0.10781)
(-3.05638e-06 -2.83019e-07 0.107788)
(-3.0348e-06 3.67594e-07 0.107785)
(1.96486e-06 -5.48475e-08 0.107811)
(3.03072e-06 -3.54306e-07 0.107789)
(2.95228e-06 3.46382e-07 0.107786)
(3.41953e-05 -3.41843e-05 0.104329)
(-4.49201e-05 4.49679e-05 0.104445)
(-1.39985e-07 2.01447e-06 0.107813)
(-3.49862e-07 3.09473e-06 0.107788)
(3.23663e-07 3.1029e-06 0.107787)
(4.48744e-05 4.49221e-05 0.104445)
(3.34225e-05 3.33157e-05 0.104306)
(-4.49777e-05 -4.50024e-05 0.104422)
(-3.75587e-07 -3.27046e-06 0.107778)
(5.12031e-07 -3.30804e-06 0.107777)
(-9.9744e-07 -4.14777e-06 0.107754)
(9.9981e-07 -4.11598e-06 0.107754)
(-3.33315e-05 3.32904e-05 0.104306)
(4.49802e-05 -4.49729e-05 0.104423)
(-3.28652e-06 -5.62035e-07 0.10778)
(-3.32367e-06 5.40765e-07 0.107777)
(-4.1309e-06 -1.10851e-06 0.107756)
(-4.03109e-06 9.43667e-07 0.107753)
(3.25836e-06 4.63771e-07 0.107777)
(4.25113e-06 -1.02869e-06 0.107757)
(4.12976e-06 9.67779e-07 0.107754)
(3.33112e-05 -3.33073e-05 0.104306)
(-4.49223e-05 4.49323e-05 0.104422)
(5.5028e-07 3.36845e-06 0.107779)
(-9.61066e-07 4.14686e-06 0.107756)
(1.07358e-06 4.11872e-06 0.107755)
(4.49858e-05 4.49457e-05 0.104422)
(3.24881e-05 3.24898e-05 0.104286)
(-4.5007e-05 -4.49956e-05 0.104402)
(-1.1354e-06 -4.35776e-06 0.107747)
(1.02921e-06 -4.37491e-06 0.107746)
(-1.56404e-06 -5.13712e-06 0.107725)
(1.27468e-06 -5.06961e-06 0.107724)
(-3.25377e-05 3.24647e-05 0.104286)
(4.48528e-05 -4.50224e-05 0.104402)
(-4.42303e-06 -1.16375e-06 0.107748)
(-4.31728e-06 1.0167e-06 0.107745)
(-5.14397e-06 -1.57488e-06 0.107727)
(-5.11658e-06 1.37738e-06 0.107723)
(4.38307e-06 1.14626e-06 0.107746)
(4.93104e-06 -1.60344e-06 0.107727)
(5.09826e-06 1.50801e-06 0.107724)
(3.24997e-05 -3.25922e-05 0.104285)
(-4.5087e-05 4.48917e-05 0.104402)
(1.15961e-06 4.41915e-06 0.107748)
(-1.74312e-06 5.04862e-06 0.107726)
(1.55135e-06 5.16486e-06 0.107726)
(4.50015e-05 4.49827e-05 0.104401)
(3.1673e-05 3.16863e-05 0.104268)
(-4.51935e-05 -4.49281e-05 0.104383)
(-1.73098e-06 -5.39774e-06 0.107718)
(1.5641e-06 -5.29166e-06 0.107717)
(-2.16438e-06 -5.96493e-06 0.107697)
(2.39734e-06 -6.01888e-06 0.107696)
(-3.17859e-05 3.16766e-05 0.104267)
(4.53489e-05 -4.49337e-05 0.104384)
(-5.38902e-06 -1.70056e-06 0.10772)
(-5.37154e-06 1.59994e-06 0.107716)
(-6.24377e-06 -1.80621e-06 0.107698)
(-6.02342e-06 2.21813e-06 0.107695)
(5.32743e-06 1.57884e-06 0.107717)
(6.35551e-06 -1.89669e-06 0.107698)
(5.97768e-06 2.15948e-06 0.107696)
(3.15972e-05 -3.18005e-05 0.104267)
(-4.49009e-05 4.52208e-05 0.104383)
(1.67818e-06 5.27553e-06 0.107719)
(-1.83856e-06 6.18747e-06 0.107698)
(1.92026e-06 6.13775e-06 0.107697)
(4.49375e-05 4.51292e-05 0.104383)
(3.08773e-05 3.10411e-05 0.104251)
(-4.45794e-05 -4.52992e-05 0.104367)
(-2.21303e-06 -6.16341e-06 0.107689)
(2.42244e-06 -6.17464e-06 0.107689)
(-2.15277e-06 -7.29064e-06 0.10767)
(2.49103e-06 -7.262e-06 0.10767)
(-3.07252e-05 3.10515e-05 0.104251)
(4.47633e-05 -4.52035e-05 0.104368)
(-6.5224e-06 -2.0209e-06 0.107691)
(-6.29946e-06 2.35759e-06 0.107688)
(-6.79357e-06 -3.18632e-06 0.107672)
(-7.16521e-06 2.58434e-06 0.107669)
(6.33406e-06 2.34577e-06 0.107689)
(7.06726e-06 -3.02721e-06 0.107673)
(7.21242e-06 2.27097e-06 0.10767)
(3.10963e-05 -3.08157e-05 0.104251)
(-4.50545e-05 4.49205e-05 0.104367)
(2.17525e-06 6.60931e-06 0.10769)
(-2.7832e-06 7.12684e-06 0.107672)
(2.97563e-06 6.84254e-06 0.107671)
(4.51367e-05 4.46866e-05 0.104367)
(3.07199e-05 3.01286e-05 0.104237)
(-4.52373e-05 -4.42574e-05 0.104355)
(-2.48439e-06 -7.55123e-06 0.107664)
(2.6796e-06 -7.70423e-06 0.107664)
(-3.54602e-06 -7.03242e-06 0.107648)
(2.71466e-06 -6.98529e-06 0.107647)
(-3.05716e-05 3.01044e-05 0.104237)
(4.46795e-05 -4.44562e-05 0.104355)
(-6.88326e-06 -3.19345e-06 0.107666)
(-7.11771e-06 2.60877e-06 0.107663)
(-7.86311e-06 -2.26252e-06 0.107649)
(-7.17538e-06 3.08386e-06 0.107646)
(7.20073e-06 2.54209e-06 0.107664)
(7.17406e-06 -2.53585e-06 0.107649)
(7.15817e-06 3.66616e-06 0.107647)
(3.03655e-05 -3.05268e-05 0.104237)
(-4.47509e-05 4.4798e-05 0.104354)
(2.83029e-06 6.82863e-06 0.107665)
(-3.00245e-06 7.47079e-06 0.107649)
(2.4596e-06 8.0669e-06 0.107648)
(4.44799e-05 4.52972e-05 0.104354)
(2.9658e-05 3.03947e-05 0.104227)
(-4.45326e-05 -4.53538e-05 0.104343)
(-3.27672e-06 -7.08975e-06 0.107642)
(2.80935e-06 -6.89608e-06 0.107641)
(-3.14729e-06 -8.43264e-06 0.107625)
(3.76815e-06 -8.70823e-06 0.107625)
(-3.01286e-05 3.02964e-05 0.104226)
(4.51243e-05 -4.51787e-05 0.104343)
(-7.92437e-06 -2.48244e-06 0.107643)
(-7.66082e-06 3.26621e-06 0.10764)
(-7.63501e-06 -4.25122e-06 0.107627)
(-8.43595e-06 2.90707e-06 0.107624)
(7.40112e-06 3.30618e-06 0.107641)
(8.56059e-06 -3.9183e-06 0.107627)
(8.37816e-06 2.62442e-06 0.107624)
(2.98168e-05 -2.99489e-05 0.104226)
(-4.50707e-05 4.46049e-05 0.104343)
(2.80137e-06 8.11754e-06 0.107643)
(-3.58772e-06 8.08413e-06 0.107627)
(4.22773e-06 7.39058e-06 0.107626)
(4.53719e-05 4.41833e-05 0.104342)
(2.93947e-05 2.88491e-05 0.104217)
(-4.54587e-05 -4.51415e-05 0.104333)
(-3.88036e-06 -8.73741e-06 0.10762)
(3.80345e-06 -8.87612e-06 0.107619)
(-4.02968e-06 -9.44194e-06 0.107606)
(3.86958e-06 -8.60632e-06 0.107603)
(-2.90051e-05 2.90097e-05 0.104216)
(4.50182e-05 -4.49283e-05 0.104333)
(-8.23518e-06 -4.34606e-06 0.107622)
(-8.35504e-06 2.75479e-06 0.107619)
(-1.00795e-05 -3.63854e-06 0.107607)
(-9.21598e-06 4.36498e-06 0.107602)
(8.68497e-06 3.27082e-06 0.107619)
(8.96035e-06 -3.7747e-06 0.107607)
(9.58434e-06 4.17907e-06 0.107604)
(2.92056e-05 -2.96414e-05 0.104216)
(-4.50933e-05 4.54755e-05 0.10433)
(4.3541e-06 7.88029e-06 0.10762)
(-4.16562e-06 8.96846e-06 0.107603)
(3.76063e-06 9.73664e-06 0.107605)
(4.50065e-05 4.55587e-05 0.104331)
(2.83703e-05 2.83833e-05 0.104207)
(-4.52511e-05 -4.51054e-05 0.104319)
(-3.46866e-06 -9.61197e-06 0.1076)
(4.41368e-06 -9.16563e-06 0.107598)
(-4.48839e-06 -9.45158e-06 0.107579)
(5.22655e-06 -1.04785e-05 0.107581)
(-2.84155e-05 2.83789e-05 0.104207)
(4.5765e-05 -4.56995e-05 0.104322)
(-9.79606e-06 -3.59393e-06 0.107601)
(-9.51528e-06 5.23112e-06 0.107597)
(-9.33095e-06 -4.30774e-06 0.10758)
(-9.74833e-06 5.46135e-06 0.107581)
(9.56525e-06 4.05919e-06 0.107599)
(1.04769e-05 -4.88759e-06 0.107584)
(9.15383e-06 5.18692e-06 0.107579)
(2.84257e-05 -2.78457e-05 0.104206)
(-4.50048e-05 4.59484e-05 0.104321)
(3.48539e-06 9.72909e-06 0.107599)
(-4.02755e-06 1.09223e-05 0.107583)
(3.90822e-06 1.00288e-05 0.10758)
(4.4768e-05 4.57212e-05 0.104319)
(2.77946e-05 2.80256e-05 0.104196)
(-4.39786e-05 -4.53865e-05 0.10432)
(-5.05221e-06 -9.70303e-06 0.107573)
(4.80008e-06 -1.05948e-05 0.107576)
(-4.82759e-06 -1.17497e-05 0.107566)
(3.5135e-06 -1.12277e-05 0.107566)
(-2.76766e-05 2.76395e-05 0.104199)
(4.33418e-05 -4.47577e-05 0.10432)
(-9.84853e-06 -4.82119e-06 0.107574)
(-1.00874e-05 4.75516e-06 0.107575)
(-1.10334e-05 -6.61023e-06 0.107567)
(-1.12283e-05 3.53e-06 0.107563)
(9.63667e-06 5.40203e-06 0.107573)
(1.03431e-05 -5.42554e-06 0.107569)
(1.14539e-05 4.43964e-06 0.107565)
(2.80468e-05 -2.76126e-05 0.104199)
(-4.49123e-05 4.31888e-05 0.104318)
(4.60934e-06 1.04881e-05 0.107575)
(-5.52969e-06 1.03373e-05 0.107568)
(6.23219e-06 1.08197e-05 0.107567)
(4.52566e-05 4.37144e-05 0.104319)
(2.8663e-05 2.73614e-05 0.104201)
(-4.5348e-05 -4.23973e-05 0.104324)
(-5.15357e-06 -1.1852e-05 0.107566)
(3.94817e-06 -1.14099e-05 0.107565)
(-6.6021e-06 -8.14735e-06 0.107564)
(4.77404e-06 -7.5009e-06 0.107558)
(-2.91745e-05 2.78834e-05 0.1042)
(4.41429e-05 -4.2121e-05 0.10432)
(-1.09369e-05 -6.42491e-06 0.107567)
(-1.09613e-05 4.0286e-06 0.107562)
(-9.63308e-06 -2.50849e-06 0.107564)
(-8.55608e-06 5.38494e-06 0.107559)
(1.12355e-05 4.8393e-06 0.107564)
(8.5793e-06 -2.43731e-06 0.10756)
(8.8722e-06 6.10564e-06 0.107563)
(2.79039e-05 -2.94293e-05 0.104199)
(-4.39446e-05 4.43128e-05 0.104322)
(6.06745e-06 1.05272e-05 0.107567)
(-5.01e-06 8.65428e-06 0.107562)
(3.91284e-06 9.60383e-06 0.107564)
(4.35515e-05 4.49446e-05 0.104323)
(2.70437e-05 2.9735e-05 0.104204)
(-4.24428e-05 -4.76609e-05 0.104307)
(-5.95408e-06 -7.49289e-06 0.107561)
(4.73162e-06 -5.93935e-06 0.107553)
(-4.96849e-07 -1.04836e-05 0.107538)
(6.47034e-06 -1.09883e-05 0.107539)
(-2.82051e-05 3.01314e-05 0.1042)
(4.58005e-05 -4.88538e-05 0.104313)
(-9.46708e-06 -2.45401e-06 0.107561)
(-8.56564e-06 5.23134e-06 0.107557)
(-8.66942e-06 -6.92844e-06 0.107542)
(-1.09324e-05 3.72838e-06 0.10754)
(8.87827e-06 5.10873e-06 0.10756)
(9.49548e-06 -9.92113e-06 0.107544)
(1.03198e-05 -5.44088e-07 0.107536)
(2.80206e-05 -2.78529e-05 0.104202)
(-4.62709e-05 4.50299e-05 0.104309)
(3.67234e-06 9.42422e-06 0.107561)
(-5.95944e-06 9.67781e-06 0.107542)
(4.91886e-06 8.2365e-06 0.107538)
(4.60415e-05 4.20904e-05 0.104303)
(2.93666e-05 2.38559e-05 0.104186)
(-4.68284e-05 -4.5105e-05 0.104291)
(-7.86342e-08 -1.23002e-05 0.107529)
(7.07971e-06 -1.4168e-05 0.107536)
(-5.32215e-06 -1.5528e-05 0.107508)
(8.14443e-06 -1.73854e-05 0.107526)
(-2.56672e-05 2.24142e-05 0.104194)
(4.87008e-05 -4.53794e-05 0.104309)
(-8.9078e-06 -8.13681e-06 0.107533)
(-1.21103e-05 3.80991e-06 0.107531)
(-1.30687e-05 -7.07678e-06 0.107508)
(-1.24592e-05 5.90138e-06 0.107504)
(1.07597e-05 -9.67259e-07 0.107525)
(1.79287e-05 -5.51788e-06 0.107527)
(1.29289e-05 6.7691e-06 0.1075)
(2.55857e-05 -2.6606e-05 0.104188)
(-4.23719e-05 4.63616e-05 0.10429)
(5.42636e-06 8.00404e-06 0.107526)
(-1.75196e-06 1.41551e-05 0.107505)
(6.77066e-06 1.15952e-05 0.107499)
(4.41189e-05 4.67331e-05 0.104286)
(2.43195e-05 2.79962e-05 0.104176)
(-4.52766e-05 -3.06459e-05 0.104308)
(-8.01387e-06 -1.33789e-05 0.107504)
(7.30401e-06 -1.49689e-05 0.107521)
(-1.46607e-05 8.98287e-07 0.10751)
(-2.67196e-06 1.35216e-06 0.107501)
(-2.35781e-05 2.79951e-05 0.104191)
(3.44972e-05 -3.1718e-05 0.104295)
(-1.35389e-05 -4.07777e-06 0.107503)
(-9.59539e-06 6.86724e-06 0.107499)
(-1.07408e-05 6.78285e-06 0.107508)
(-2.77744e-06 9.18444e-06 0.107505)
(1.19985e-05 1.14346e-05 0.107499)
(3.36895e-06 9.7872e-06 0.107504)
(4.32091e-06 2.00373e-05 0.107523)
(3.05893e-05 -2.57841e-05 0.104174)
(-3.7407e-05 3.98613e-05 0.104309)
(5.97657e-06 1.33947e-05 0.107498)
(-2.51389e-06 8.25609e-06 0.107511)
(-1.00031e-06 1.68384e-05 0.107525)
(3.4683e-05 4.90068e-05 0.104325)
(2.71512e-05 4.03705e-05 0.104198)
(-2.78915e-05 -4.93555e-05 0.104362)
(-1.39263e-05 2.50263e-06 0.107516)
(-5.61994e-06 4.33444e-06 0.107496)
(5.41216e-06 -1.32908e-05 0.107547)
(-2.77897e-06 -7.85329e-06 0.107512)
(-3.88504e-05 3.9165e-05 0.10418)
(3.08304e-05 -4.85864e-05 0.104327)
(-9.62047e-06 6.3691e-06 0.107517)
(-5.35377e-06 7.65956e-06 0.107516)
(-5.3866e-06 -1.36598e-05 0.107559)
(-2.02447e-05 -5.48209e-06 0.107569)
(3.59779e-06 1.57528e-05 0.107534)
(-3.3426e-06 -1.91185e-05 0.107519)
(1.28698e-05 -1.61035e-05 0.107555)
(3.15611e-05 -3.2314e-05 0.104201)
(-5.20077e-05 3.11622e-05 0.104376)
(-2.3697e-06 1.56463e-05 0.10754)
(-2.04398e-05 5.19013e-06 0.107576)
(7.04937e-06 1.38939e-06 0.107567)
(4.73126e-05 2.30623e-05 0.104358)
(4.31118e-05 1.65455e-05 0.104248)
(-5.00355e-05 -7.07547e-05 0.104337)
(1.18449e-05 -2.12762e-05 0.107559)
(3.11183e-06 -1.68104e-05 0.107533)
(7.99528e-06 -3.3912e-05 0.107551)
(2.6046e-05 -3.54146e-05 0.107582)
(-3.55279e-05 1.76707e-05 0.104221)
(6.98996e-05 -6.34362e-05 0.104377)
(-3.78482e-06 -2.31937e-05 0.107571)
(-2.1555e-05 -8.37493e-06 0.107581)
(-1.06258e-05 -3.06177e-05 0.107545)
(-1.38609e-05 5.9196e-07 0.107527)
(1.56632e-05 -2.41919e-05 0.107552)
(3.3457e-05 -2.35307e-05 0.107575)
(2.20414e-05 -1.18908e-05 0.107497)
(1.82732e-05 -3.77784e-05 0.104259)
(-4.77786e-05 5.82981e-05 0.104303)
(1.30287e-05 -4.97805e-06 0.107561)
(5.33908e-06 1.44683e-05 0.107513)
(2.37369e-05 1.08103e-07 0.107486)
(6.44077e-05 4.64387e-05 0.104283)
(1.23635e-05 8.28105e-08 0.104205)
(-9.66993e-05 -4.43531e-05 0.104177)
(-4.54766e-06 -3.29356e-05 0.107523)
(3.14124e-05 -3.69409e-05 0.107572)
(-5.20729e-05 -1.75381e-05 0.107364)
(2.40841e-05 -3.17015e-05 0.107411)
(5.38483e-06 6.29772e-06 0.104252)
(7.64889e-05 -5.68661e-05 0.104217)
(-1.91515e-05 -2.29456e-05 0.107509)
(-1.14003e-05 1.15198e-05 0.107477)
(-4.88114e-05 1.33178e-05 0.107342)
(-1.84978e-05 3.80201e-05 0.107303)
(2.42002e-05 7.10778e-06 0.107466)
(4.88851e-05 7.35729e-06 0.107408)
(2.39042e-05 6.57986e-05 0.107356)
(2.21459e-05 -6.28434e-06 0.104165)
(-5.70487e-05 7.74434e-05 0.104141)
(2.19e-05 1.21895e-05 0.107447)
(-4.91776e-06 3.73756e-05 0.107301)
(-1.46267e-06 5.62871e-05 0.107332)
(4.86486e-05 0.000101487 0.104181)
(-2.37503e-05 2.76015e-05 0.104066)
(-2.78692e-05 -4.10198e-05 0.104221)
(-5.29346e-05 -1.55378e-05 0.107315)
(1.0589e-05 -2.59704e-05 0.107339)
(-1.78506e-05 -2.61407e-05 0.107297)
(-9.7294e-06 -1.64865e-05 0.10725)
(-1.11033e-06 1.47003e-05 0.104092)
(1.6466e-05 -3.97159e-05 0.104169)
(-5.44623e-05 1.93393e-05 0.107301)
(-2.81696e-05 3.69836e-05 0.107276)
(-3.39528e-05 -8.9331e-06 0.107318)
(-4.72426e-05 1.8966e-05 0.107347)
(2.61633e-05 6.69868e-05 0.107335)
(5.16628e-06 -1.23405e-05 0.107266)
(3.57791e-05 2.16889e-05 0.107362)
(9.71315e-06 4.30283e-06 0.104041)
(-5.43019e-05 3.20257e-05 0.104266)
(-6.61088e-06 6.66245e-05 0.107319)
(-3.98213e-05 3.86996e-05 0.107369)
(1.23051e-05 4.65404e-05 0.107387)
(4.5091e-05 3.24159e-05 0.104274)
(5.18442e-05 2.59074e-05 0.104151)
(2.74727e-05 -4.16373e-05 0.104535)
(-1.47725e-06 -3.01727e-05 0.107338)
(-5.84538e-06 -1.59458e-05 0.107278)
(4.855e-05 -2.68369e-05 0.107589)
(2.44994e-06 -1.41548e-05 0.107542)
(-5.5018e-05 2.98249e-05 0.104096)
(8.59829e-06 -2.78066e-05 0.104504)
(-1.84552e-05 -2.57144e-05 0.107367)
(-4.54503e-05 8.78079e-06 0.10741)
(2.53676e-05 -4.8728e-05 0.107616)
(-8.91223e-06 -3.74141e-05 0.107647)
(3.70773e-05 -9.39262e-07 0.107401)
(-4.80439e-06 -3.72483e-05 0.107542)
(1.98953e-05 -6.89634e-05 0.107594)
(1.87484e-05 -4.34622e-05 0.1042)
(-1.31869e-05 -9.47864e-06 0.104545)
(2.44507e-05 2.73594e-05 0.107437)
(-1.99311e-06 -1.35626e-05 0.107651)
(3.41288e-05 -3.57765e-05 0.107627)
(3.84325e-05 -3.64095e-05 0.104518)
(9.64916e-05 3.2918e-05 0.10445)
(-4.79476e-05 -1.56176e-05 0.104589)
(5.2767e-05 -1.43523e-05 0.10769)
(3.01866e-06 -8.40553e-06 0.107664)
(1.38088e-05 5.22279e-05 0.107825)
(5.92257e-07 4.26641e-05 0.107877)
(-5.97873e-05 4.49464e-05 0.104438)
(4.64649e-05 -1.76978e-05 0.104658)
(3.89293e-05 -4.42169e-05 0.107705)
(1.56193e-05 -4.67651e-05 0.107706)
(5.54969e-05 1.8971e-05 0.107788)
(8.39996e-05 -2.56617e-05 0.107678)
(7.79965e-07 -7.56611e-05 0.107658)
(-3.54036e-05 2.21273e-05 0.107848)
(-7.18005e-05 -2.19452e-05 0.107696)