/*--------------------------------*- C++ -*----------------------------------*\
| =========                 |                                                 |
| \\      /  F ield         | OpenFOAM: The Open Source CFD Toolbox           |
|  \\    /   O peration     | Version:  v2012                                 |
|   \\  /    A nd           | Website:  www.openfoam.com                      |
|    \\/     M anipulation  |                                                 |
\*---------------------------------------------------------------------------*/
FoamFile
{
    version     2.0;
    format      ascii;
    class       volScalarField;
    location    "20.5";
    object      p;
}
// * * * * * * * * * * * * * * * * * * * * * * * * * * * * * * * * * * * * * //

dimensions      [0 2 -2 0 0 0 0];


internalField   nonuniform List<scalar> 
247104
(
1.38331e-06
1.38338e-06
1.38333e-06
1.38324e-06
1.38319e-06
1.38325e-06
1.38334e-06
1.38337e-06
1.38338e-06
1.38337e-06
1.38314e-06
1.3829e-06
1.38281e-06
1.38292e-06
1.38318e-06
1.38338e-06
1.38333e-06
1.38314e-06
1.38275e-06
1.38242e-06
1.38231e-06
1.38245e-06
1.3828e-06
1.38319e-06
1.38332e-06
1.38324e-06
1.3829e-06
1.38242e-06
1.38206e-06
1.38194e-06
1.38209e-06
1.38248e-06
1.38296e-06
1.38325e-06
1.38331e-06
1.38319e-06
1.38281e-06
1.38231e-06
1.38194e-06
1.38181e-06
1.38197e-06
1.38237e-06
1.38287e-06
1.38321e-06
1.38325e-06
1.38292e-06
1.38245e-06
1.38209e-06
1.38197e-06
1.38212e-06
1.38251e-06
1.38298e-06
1.38326e-06
1.38334e-06
1.38318e-06
1.3828e-06
1.38248e-06
1.38237e-06
1.38251e-06
1.38284e-06
1.38322e-06
1.38333e-06
1.38337e-06
1.38338e-06
1.38319e-06
1.38296e-06
1.38287e-06
1.38298e-06
1.38322e-06
1.38339e-06
1.38332e-06
1.38325e-06
1.38321e-06
1.38326e-06
1.38333e-06
1.36294e-06
1.36264e-06
1.36246e-06
1.36106e-06
1.361e-06
1.36098e-06
1.36102e-06
1.36237e-06
1.36254e-06
1.36246e-06
1.36064e-06
1.3584e-06
1.3584e-06
1.3584e-06
1.3584e-06
1.36074e-06
1.36125e-06
1.36106e-06
1.3584e-06
1.35839e-06
1.35843e-06
1.35843e-06
1.35839e-06
1.3584e-06
1.36121e-06
1.36266e-06
1.36294e-06
1.361e-06
1.3584e-06
1.35843e-06
1.35847e-06
1.35847e-06
1.35843e-06
1.3584e-06
1.36119e-06
1.36243e-06
1.36264e-06
1.36098e-06
1.3584e-06
1.35843e-06
1.35847e-06
1.35847e-06
1.35843e-06
1.3584e-06
1.36115e-06
1.36136e-06
1.36102e-06
1.3584e-06
1.35839e-06
1.35843e-06
1.35843e-06
1.35839e-06
1.3584e-06
1.36121e-06
1.36258e-06
1.36237e-06
1.36074e-06
1.3584e-06
1.3584e-06
1.3584e-06
1.3584e-06
1.36079e-06
1.36124e-06
1.36267e-06
1.36254e-06
1.36125e-06
1.36121e-06
1.36119e-06
1.36115e-06
1.36121e-06
1.36124e-06
1.36243e-06
1.36266e-06
1.36244e-06
1.36136e-06
1.36258e-06
1.36267e-06
1.34834e-06
1.34822e-06
1.34812e-06
1.34669e-06
1.34661e-06
1.34657e-06
1.34665e-06
1.34806e-06
1.34822e-06
1.34812e-06
1.34624e-06
1.34388e-06
1.34388e-06
1.34388e-06
1.34388e-06
1.34634e-06
1.3469e-06
1.34669e-06
1.34388e-06
1.34387e-06
1.34387e-06
1.34387e-06
1.34387e-06
1.34388e-06
1.34682e-06
1.34829e-06
1.34834e-06
1.34661e-06
1.34388e-06
1.34387e-06
1.34388e-06
1.34388e-06
1.34387e-06
1.34388e-06
1.34679e-06
1.34809e-06
1.34822e-06
1.34657e-06
1.34388e-06
1.34387e-06
1.34388e-06
1.34388e-06
1.34387e-06
1.34388e-06
1.34676e-06
1.34701e-06
1.34665e-06
1.34388e-06
1.34387e-06
1.34387e-06
1.34387e-06
1.34387e-06
1.34388e-06
1.3468e-06
1.34826e-06
1.34806e-06
1.34634e-06
1.34388e-06
1.34388e-06
1.34388e-06
1.34388e-06
1.34642e-06
1.34688e-06
1.34833e-06
1.34822e-06
1.3469e-06
1.34682e-06
1.34679e-06
1.34676e-06
1.3468e-06
1.34688e-06
1.34813e-06
1.34829e-06
1.34809e-06
1.34701e-06
1.34826e-06
1.34833e-06
1.33385e-06
1.33374e-06
1.33363e-06
1.33219e-06
1.33211e-06
1.33207e-06
1.33216e-06
1.33357e-06
1.33373e-06
1.33363e-06
1.33174e-06
1.32937e-06
1.32937e-06
1.32937e-06
1.32937e-06
1.33183e-06
1.3324e-06
1.33219e-06
1.32937e-06
1.32937e-06
1.32937e-06
1.32937e-06
1.32937e-06
1.32937e-06
1.33232e-06
1.3338e-06
1.33385e-06
1.33211e-06
1.32937e-06
1.32937e-06
1.32937e-06
1.32937e-06
1.32937e-06
1.32937e-06
1.33229e-06
1.33361e-06
1.33374e-06
1.33207e-06
1.32937e-06
1.32937e-06
1.32937e-06
1.32937e-06
1.32937e-06
1.32937e-06
1.33227e-06
1.33252e-06
1.33216e-06
1.32937e-06
1.32937e-06
1.32937e-06
1.32937e-06
1.32937e-06
1.32937e-06
1.33231e-06
1.33377e-06
1.33357e-06
1.33183e-06
1.32937e-06
1.32937e-06
1.32937e-06
1.32937e-06
1.33194e-06
1.3324e-06
1.33384e-06
1.33373e-06
1.3324e-06
1.33232e-06
1.33229e-06
1.33227e-06
1.33231e-06
1.3324e-06
1.33364e-06
1.3338e-06
1.33361e-06
1.33252e-06
1.33377e-06
1.33384e-06
1.31935e-06
1.31924e-06
1.31913e-06
1.31769e-06
1.31761e-06
1.31757e-06
1.31766e-06
1.31907e-06
1.31923e-06
1.31913e-06
1.31724e-06
1.31487e-06
1.31487e-06
1.31487e-06
1.31487e-06
1.31733e-06
1.3179e-06
1.31769e-06
1.31487e-06
1.31487e-06
1.31487e-06
1.31487e-06
1.31487e-06
1.31487e-06
1.31782e-06
1.31931e-06
1.31935e-06
1.31761e-06
1.31487e-06
1.31487e-06
1.31487e-06
1.31487e-06
1.31487e-06
1.31487e-06
1.31779e-06
1.31911e-06
1.31924e-06
1.31757e-06
1.31487e-06
1.31487e-06
1.31487e-06
1.31487e-06
1.31487e-06
1.31487e-06
1.31777e-06
1.31802e-06
1.31766e-06
1.31487e-06
1.31487e-06
1.31487e-06
1.31487e-06
1.31487e-06
1.31487e-06
1.31781e-06
1.31928e-06
1.31907e-06
1.31733e-06
1.31487e-06
1.31487e-06
1.31487e-06
1.31487e-06
1.31745e-06
1.3179e-06
1.31934e-06
1.31923e-06
1.3179e-06
1.31782e-06
1.31779e-06
1.31777e-06
1.31781e-06
1.3179e-06
1.31914e-06
1.31931e-06
1.31911e-06
1.31802e-06
1.31928e-06
1.31934e-06
1.30485e-06
1.30474e-06
1.30463e-06
1.30319e-06
1.30311e-06
1.30307e-06
1.30316e-06
1.30457e-06
1.30473e-06
1.30463e-06
1.30274e-06
1.30037e-06
1.30037e-06
1.30037e-06
1.30037e-06
1.30283e-06
1.3034e-06
1.30319e-06
1.30037e-06
1.30037e-06
1.30037e-06
1.30037e-06
1.30037e-06
1.30037e-06
1.30332e-06
1.30481e-06
1.30485e-06
1.30311e-06
1.30037e-06
1.30037e-06
1.30037e-06
1.30037e-06
1.30037e-06
1.30037e-06
1.30329e-06
1.30461e-06
1.30474e-06
1.30307e-06
1.30037e-06
1.30037e-06
1.30037e-06
1.30037e-06
1.30037e-06
1.30037e-06
1.30327e-06
1.30353e-06
1.30316e-06
1.30037e-06
1.30037e-06
1.30037e-06
1.30037e-06
1.30037e-06
1.30037e-06
1.30331e-06
1.30478e-06
1.30457e-06
1.30283e-06
1.30037e-06
1.30037e-06
1.30037e-06
1.30037e-06
1.30295e-06
1.3034e-06
1.30484e-06
1.30473e-06
1.3034e-06
1.30332e-06
1.30329e-06
1.30327e-06
1.30331e-06
1.3034e-06
1.30464e-06
1.30481e-06
1.30461e-06
1.30353e-06
1.30478e-06
1.30484e-06
1.29035e-06
1.29024e-06
1.29013e-06
1.28869e-06
1.28861e-06
1.28857e-06
1.28866e-06
1.29007e-06
1.29023e-06
1.29013e-06
1.28824e-06
1.28586e-06
1.28587e-06
1.28587e-06
1.28586e-06
1.28833e-06
1.2889e-06
1.28869e-06
1.28586e-06
1.28586e-06
1.28587e-06
1.28587e-06
1.28587e-06
1.28586e-06
1.28882e-06
1.29031e-06
1.29035e-06
1.28861e-06
1.28587e-06
1.28587e-06
1.28587e-06
1.28587e-06
1.28587e-06
1.28586e-06
1.28879e-06
1.29011e-06
1.29024e-06
1.28857e-06
1.28587e-06
1.28587e-06
1.28587e-06
1.28587e-06
1.28587e-06
1.28587e-06
1.28877e-06
1.28903e-06
1.28866e-06
1.28586e-06
1.28586e-06
1.28587e-06
1.28587e-06
1.28586e-06
1.28586e-06
1.28881e-06
1.29028e-06
1.29007e-06
1.28833e-06
1.28586e-06
1.28586e-06
1.28587e-06
1.28586e-06
1.28845e-06
1.2889e-06
1.29034e-06
1.29023e-06
1.2889e-06
1.28882e-06
1.28879e-06
1.28877e-06
1.28881e-06
1.2889e-06
1.29014e-06
1.29031e-06
1.29011e-06
1.28903e-06
1.29028e-06
1.29034e-06
1.27585e-06
1.27574e-06
1.27563e-06
1.27419e-06
1.27411e-06
1.27407e-06
1.27416e-06
1.27557e-06
1.27573e-06
1.27563e-06
1.27374e-06
1.27136e-06
1.27136e-06
1.27136e-06
1.27136e-06
1.27383e-06
1.2744e-06
1.27419e-06
1.27136e-06
1.27136e-06
1.27136e-06
1.27136e-06
1.27136e-06
1.27136e-06
1.27432e-06
1.27581e-06
1.27585e-06
1.27411e-06
1.27136e-06
1.27137e-06
1.27137e-06
1.27137e-06
1.27137e-06
1.27136e-06
1.27429e-06
1.27561e-06
1.27574e-06
1.27407e-06
1.27136e-06
1.27136e-06
1.27137e-06
1.27136e-06
1.27137e-06
1.27136e-06
1.27427e-06
1.27453e-06
1.27416e-06
1.27136e-06
1.27136e-06
1.27136e-06
1.27136e-06
1.27136e-06
1.27136e-06
1.27431e-06
1.27578e-06
1.27557e-06
1.27383e-06
1.27136e-06
1.27136e-06
1.27136e-06
1.27136e-06
1.27395e-06
1.2744e-06
1.27584e-06
1.27573e-06
1.2744e-06
1.27432e-06
1.27429e-06
1.27427e-06
1.27431e-06
1.2744e-06
1.27564e-06
1.27581e-06
1.27561e-06
1.27453e-06
1.27578e-06
1.27584e-06
1.26135e-06
1.26124e-06
1.26113e-06
1.25969e-06
1.25961e-06
1.25957e-06
1.25966e-06
1.26107e-06
1.26123e-06
1.26113e-06
1.25924e-06
1.25686e-06
1.25686e-06
1.25686e-06
1.25686e-06
1.25933e-06
1.2599e-06
1.25969e-06
1.25686e-06
1.25686e-06
1.25686e-06
1.25686e-06
1.25686e-06
1.25686e-06
1.25982e-06
1.26131e-06
1.26135e-06
1.25961e-06
1.25686e-06
1.25686e-06
1.25686e-06
1.25686e-06
1.25686e-06
1.25686e-06
1.25979e-06
1.26111e-06
1.26124e-06
1.25957e-06
1.25686e-06
1.25686e-06
1.25686e-06
1.25686e-06
1.25686e-06
1.25686e-06
1.25977e-06
1.26003e-06
1.25966e-06
1.25686e-06
1.25686e-06
1.25686e-06
1.25686e-06
1.25686e-06
1.25686e-06
1.25981e-06
1.26128e-06
1.26107e-06
1.25933e-06
1.25686e-06
1.25686e-06
1.25686e-06
1.25686e-06
1.25945e-06
1.2599e-06
1.26134e-06
1.26123e-06
1.2599e-06
1.25982e-06
1.25979e-06
1.25977e-06
1.25981e-06
1.2599e-06
1.26114e-06
1.26131e-06
1.26111e-06
1.26003e-06
1.26128e-06
1.26134e-06
1.24685e-06
1.24674e-06
1.24663e-06
1.24519e-06
1.24511e-06
1.24507e-06
1.24516e-06
1.24657e-06
1.24673e-06
1.24663e-06
1.24474e-06
1.24236e-06
1.24236e-06
1.24236e-06
1.24236e-06
1.24483e-06
1.2454e-06
1.24519e-06
1.24236e-06
1.24236e-06
1.24236e-06
1.24236e-06
1.24236e-06
1.24236e-06
1.24532e-06
1.24681e-06
1.24685e-06
1.24511e-06
1.24236e-06
1.24236e-06
1.24236e-06
1.24236e-06
1.24236e-06
1.24236e-06
1.24529e-06
1.24661e-06
1.24674e-06
1.24507e-06
1.24236e-06
1.24236e-06
1.24236e-06
1.24236e-06
1.24236e-06
1.24236e-06
1.24527e-06
1.24553e-06
1.24516e-06
1.24236e-06
1.24236e-06
1.24236e-06
1.24236e-06
1.24236e-06
1.24236e-06
1.24531e-06
1.24678e-06
1.24657e-06
1.24483e-06
1.24236e-06
1.24236e-06
1.24236e-06
1.24236e-06
1.24495e-06
1.2454e-06
1.24684e-06
1.24673e-06
1.2454e-06
1.24532e-06
1.24529e-06
1.24527e-06
1.24531e-06
1.2454e-06
1.24664e-06
1.24681e-06
1.24661e-06
1.24553e-06
1.24678e-06
1.24684e-06
1.23235e-06
1.23224e-06
1.23213e-06
1.23069e-06
1.23061e-06
1.23057e-06
1.23066e-06
1.23207e-06
1.23223e-06
1.23213e-06
1.23024e-06
1.22786e-06
1.22786e-06
1.22786e-06
1.22786e-06
1.23033e-06
1.2309e-06
1.23069e-06
1.22786e-06
1.22786e-06
1.22786e-06
1.22786e-06
1.22786e-06
1.22786e-06
1.23082e-06
1.23231e-06
1.23235e-06
1.23061e-06
1.22786e-06
1.22786e-06
1.22786e-06
1.22786e-06
1.22786e-06
1.22786e-06
1.23079e-06
1.23211e-06
1.23224e-06
1.23057e-06
1.22786e-06
1.22786e-06
1.22786e-06
1.22786e-06
1.22786e-06
1.22786e-06
1.23077e-06
1.23103e-06
1.23066e-06
1.22786e-06
1.22786e-06
1.22786e-06
1.22786e-06
1.22786e-06
1.22786e-06
1.23081e-06
1.23228e-06
1.23207e-06
1.23033e-06
1.22786e-06
1.22786e-06
1.22786e-06
1.22786e-06
1.23045e-06
1.2309e-06
1.23234e-06
1.23223e-06
1.2309e-06
1.23082e-06
1.23079e-06
1.23077e-06
1.23081e-06
1.2309e-06
1.23214e-06
1.23231e-06
1.23211e-06
1.23103e-06
1.23228e-06
1.23234e-06
1.21785e-06
1.21774e-06
1.21763e-06
1.21619e-06
1.21611e-06
1.21607e-06
1.21616e-06
1.21757e-06
1.21773e-06
1.21763e-06
1.21574e-06
1.21336e-06
1.21336e-06
1.21336e-06
1.21336e-06
1.21583e-06
1.2164e-06
1.21619e-06
1.21336e-06
1.21337e-06
1.21337e-06
1.21337e-06
1.21337e-06
1.21336e-06
1.21632e-06
1.21781e-06
1.21786e-06
1.21611e-06
1.21336e-06
1.21337e-06
1.21337e-06
1.21337e-06
1.21337e-06
1.21336e-06
1.21629e-06
1.21761e-06
1.21774e-06
1.21607e-06
1.21336e-06
1.21337e-06
1.21337e-06
1.21337e-06
1.21337e-06
1.21336e-06
1.21627e-06
1.21653e-06
1.21616e-06
1.21336e-06
1.21337e-06
1.21337e-06
1.21337e-06
1.21337e-06
1.21336e-06
1.21631e-06
1.21778e-06
1.21757e-06
1.21583e-06
1.21336e-06
1.21336e-06
1.21336e-06
1.21336e-06
1.21595e-06
1.2164e-06
1.21784e-06
1.21773e-06
1.2164e-06
1.21632e-06
1.21629e-06
1.21627e-06
1.21631e-06
1.2164e-06
1.21764e-06
1.21781e-06
1.21761e-06
1.21653e-06
1.21778e-06
1.21784e-06
1.20336e-06
1.20324e-06
1.20313e-06
1.20169e-06
1.20161e-06
1.20157e-06
1.20166e-06
1.20308e-06
1.20323e-06
1.20313e-06
1.20124e-06
1.19887e-06
1.19887e-06
1.19887e-06
1.19887e-06
1.20133e-06
1.2019e-06
1.20169e-06
1.19887e-06
1.19887e-06
1.19887e-06
1.19887e-06
1.19887e-06
1.19887e-06
1.20182e-06
1.20331e-06
1.20336e-06
1.20161e-06
1.19887e-06
1.19887e-06
1.19887e-06
1.19887e-06
1.19887e-06
1.19887e-06
1.20179e-06
1.20311e-06
1.20324e-06
1.20157e-06
1.19887e-06
1.19887e-06
1.19887e-06
1.19887e-06
1.19887e-06
1.19887e-06
1.20177e-06
1.20203e-06
1.20166e-06
1.19887e-06
1.19887e-06
1.19887e-06
1.19887e-06
1.19887e-06
1.19887e-06
1.20181e-06
1.20328e-06
1.20308e-06
1.20133e-06
1.19887e-06
1.19887e-06
1.19887e-06
1.19887e-06
1.20145e-06
1.2019e-06
1.20334e-06
1.20323e-06
1.2019e-06
1.20182e-06
1.20179e-06
1.20177e-06
1.20181e-06
1.2019e-06
1.20314e-06
1.20331e-06
1.20311e-06
1.20203e-06
1.20328e-06
1.20334e-06
1.18886e-06
1.18874e-06
1.18863e-06
1.18719e-06
1.18711e-06
1.18707e-06
1.18716e-06
1.18858e-06
1.18873e-06
1.18863e-06
1.18674e-06
1.18437e-06
1.18437e-06
1.18437e-06
1.18437e-06
1.18683e-06
1.1874e-06
1.18719e-06
1.18437e-06
1.18437e-06
1.18437e-06
1.18437e-06
1.18437e-06
1.18437e-06
1.18732e-06
1.18881e-06
1.18886e-06
1.18711e-06
1.18437e-06
1.18437e-06
1.18437e-06
1.18437e-06
1.18437e-06
1.18437e-06
1.18729e-06
1.18861e-06
1.18874e-06
1.18707e-06
1.18437e-06
1.18437e-06
1.18437e-06
1.18437e-06
1.18437e-06
1.18437e-06
1.18727e-06
1.18753e-06
1.18716e-06
1.18437e-06
1.18437e-06
1.18437e-06
1.18437e-06
1.18437e-06
1.18437e-06
1.18731e-06
1.18878e-06
1.18858e-06
1.18683e-06
1.18437e-06
1.18437e-06
1.18437e-06
1.18437e-06
1.18695e-06
1.1874e-06
1.18884e-06
1.18873e-06
1.1874e-06
1.18732e-06
1.18729e-06
1.18727e-06
1.18731e-06
1.1874e-06
1.18864e-06
1.18881e-06
1.18861e-06
1.18753e-06
1.18878e-06
1.18884e-06
1.17436e-06
1.17424e-06
1.17413e-06
1.17269e-06
1.17261e-06
1.17257e-06
1.17266e-06
1.17408e-06
1.17423e-06
1.17413e-06
1.17224e-06
1.16987e-06
1.16987e-06
1.16987e-06
1.16987e-06
1.17233e-06
1.17291e-06
1.17269e-06
1.16987e-06
1.16987e-06
1.16987e-06
1.16987e-06
1.16987e-06
1.16987e-06
1.17282e-06
1.17431e-06
1.17436e-06
1.17261e-06
1.16987e-06
1.16987e-06
1.16987e-06
1.16987e-06
1.16987e-06
1.16987e-06
1.17279e-06
1.17411e-06
1.17424e-06
1.17257e-06
1.16987e-06
1.16987e-06
1.16987e-06
1.16987e-06
1.16987e-06
1.16987e-06
1.17277e-06
1.17303e-06
1.17266e-06
1.16987e-06
1.16987e-06
1.16987e-06
1.16987e-06
1.16987e-06
1.16987e-06
1.17281e-06
1.17428e-06
1.17408e-06
1.17233e-06
1.16987e-06
1.16987e-06
1.16987e-06
1.16987e-06
1.17245e-06
1.1729e-06
1.17434e-06
1.17423e-06
1.17291e-06
1.17282e-06
1.17279e-06
1.17277e-06
1.17281e-06
1.1729e-06
1.17414e-06
1.17431e-06
1.17411e-06
1.17303e-06
1.17428e-06
1.17434e-06
1.15986e-06
1.15974e-06
1.15963e-06
1.15819e-06
1.15811e-06
1.15807e-06
1.15816e-06
1.15958e-06
1.15973e-06
1.15964e-06
1.15774e-06
1.15537e-06
1.15537e-06
1.15537e-06
1.15537e-06
1.15783e-06
1.15841e-06
1.15819e-06
1.15537e-06
1.15537e-06
1.15537e-06
1.15537e-06
1.15537e-06
1.15537e-06
1.15832e-06
1.15981e-06
1.15986e-06
1.15811e-06
1.15537e-06
1.15537e-06
1.15537e-06
1.15537e-06
1.15537e-06
1.15537e-06
1.15829e-06
1.15961e-06
1.15974e-06
1.15807e-06
1.15537e-06
1.15537e-06
1.15537e-06
1.15537e-06
1.15537e-06
1.15537e-06
1.15827e-06
1.15853e-06
1.15816e-06
1.15537e-06
1.15537e-06
1.15537e-06
1.15537e-06
1.15537e-06
1.15537e-06
1.15831e-06
1.15978e-06
1.15958e-06
1.15783e-06
1.15537e-06
1.15537e-06
1.15537e-06
1.15537e-06
1.15795e-06
1.1584e-06
1.15984e-06
1.15973e-06
1.15841e-06
1.15832e-06
1.15829e-06
1.15827e-06
1.15831e-06
1.1584e-06
1.15964e-06
1.15981e-06
1.15961e-06
1.15853e-06
1.15978e-06
1.15984e-06
1.14536e-06
1.14524e-06
1.14514e-06
1.14369e-06
1.14361e-06
1.14357e-06
1.14366e-06
1.14508e-06
1.14523e-06
1.14514e-06
1.14324e-06
1.14087e-06
1.14087e-06
1.14087e-06
1.14087e-06
1.14333e-06
1.14391e-06
1.14369e-06
1.14087e-06
1.14087e-06
1.14087e-06
1.14087e-06
1.14087e-06
1.14087e-06
1.14382e-06
1.14531e-06
1.14536e-06
1.14361e-06
1.14087e-06
1.14087e-06
1.14087e-06
1.14087e-06
1.14087e-06
1.14087e-06
1.14379e-06
1.14511e-06
1.14524e-06
1.14357e-06
1.14087e-06
1.14087e-06
1.14087e-06
1.14087e-06
1.14087e-06
1.14087e-06
1.14377e-06
1.14403e-06
1.14366e-06
1.14087e-06
1.14087e-06
1.14087e-06
1.14087e-06
1.14087e-06
1.14087e-06
1.14381e-06
1.14528e-06
1.14508e-06
1.14333e-06
1.14087e-06
1.14087e-06
1.14087e-06
1.14087e-06
1.14345e-06
1.1439e-06
1.14534e-06
1.14523e-06
1.14391e-06
1.14382e-06
1.14379e-06
1.14377e-06
1.14381e-06
1.1439e-06
1.14514e-06
1.14531e-06
1.14511e-06
1.14403e-06
1.14528e-06
1.14534e-06
1.13086e-06
1.13074e-06
1.13064e-06
1.12919e-06
1.12911e-06
1.12907e-06
1.12916e-06
1.13058e-06
1.13073e-06
1.13064e-06
1.12874e-06
1.12637e-06
1.12637e-06
1.12637e-06
1.12637e-06
1.12883e-06
1.12941e-06
1.12919e-06
1.12637e-06
1.12637e-06
1.12637e-06
1.12637e-06
1.12637e-06
1.12637e-06
1.12933e-06
1.13081e-06
1.13086e-06
1.12911e-06
1.12637e-06
1.12637e-06
1.12637e-06
1.12637e-06
1.12637e-06
1.12637e-06
1.1293e-06
1.13061e-06
1.13074e-06
1.12907e-06
1.12637e-06
1.12637e-06
1.12637e-06
1.12637e-06
1.12637e-06
1.12637e-06
1.12927e-06
1.12953e-06
1.12916e-06
1.12637e-06
1.12637e-06
1.12637e-06
1.12637e-06
1.12637e-06
1.12637e-06
1.12932e-06
1.13078e-06
1.13058e-06
1.12883e-06
1.12637e-06
1.12637e-06
1.12637e-06
1.12637e-06
1.12895e-06
1.1294e-06
1.13085e-06
1.13073e-06
1.12941e-06
1.12932e-06
1.1293e-06
1.12927e-06
1.12931e-06
1.1294e-06
1.13064e-06
1.13081e-06
1.13061e-06
1.12953e-06
1.13078e-06
1.13085e-06
1.11636e-06
1.11624e-06
1.11614e-06
1.11469e-06
1.11461e-06
1.11457e-06
1.11466e-06
1.11608e-06
1.11623e-06
1.11614e-06
1.11424e-06
1.11187e-06
1.11187e-06
1.11187e-06
1.11187e-06
1.11433e-06
1.11491e-06
1.11469e-06
1.11187e-06
1.11187e-06
1.11187e-06
1.11187e-06
1.11187e-06
1.11187e-06
1.11483e-06
1.11631e-06
1.11636e-06
1.11461e-06
1.11187e-06
1.11187e-06
1.11187e-06
1.11187e-06
1.11187e-06
1.11187e-06
1.1148e-06
1.11611e-06
1.11624e-06
1.11457e-06
1.11187e-06
1.11187e-06
1.11187e-06
1.11187e-06
1.11187e-06
1.11187e-06
1.11477e-06
1.11503e-06
1.11466e-06
1.11187e-06
1.11187e-06
1.11187e-06
1.11187e-06
1.11187e-06
1.11187e-06
1.11482e-06
1.11628e-06
1.11608e-06
1.11433e-06
1.11187e-06
1.11187e-06
1.11187e-06
1.11187e-06
1.11445e-06
1.1149e-06
1.11635e-06
1.11623e-06
1.11491e-06
1.11483e-06
1.1148e-06
1.11477e-06
1.11481e-06
1.1149e-06
1.11614e-06
1.11631e-06
1.11611e-06
1.11503e-06
1.11628e-06
1.11635e-06
1.10186e-06
1.10174e-06
1.10164e-06
1.10019e-06
1.10011e-06
1.10007e-06
1.10016e-06
1.10158e-06
1.10173e-06
1.10164e-06
1.09974e-06
1.09737e-06
1.09737e-06
1.09737e-06
1.09737e-06
1.09983e-06
1.10041e-06
1.10019e-06
1.09737e-06
1.09737e-06
1.09737e-06
1.09737e-06
1.09737e-06
1.09737e-06
1.10033e-06
1.10181e-06
1.10186e-06
1.10011e-06
1.09737e-06
1.09737e-06
1.09737e-06
1.09737e-06
1.09737e-06
1.09737e-06
1.1003e-06
1.10161e-06
1.10174e-06
1.10007e-06
1.09737e-06
1.09737e-06
1.09737e-06
1.09737e-06
1.09737e-06
1.09737e-06
1.10027e-06
1.10053e-06
1.10016e-06
1.09737e-06
1.09737e-06
1.09737e-06
1.09737e-06
1.09737e-06
1.09737e-06
1.10032e-06
1.10178e-06
1.10158e-06
1.09983e-06
1.09737e-06
1.09737e-06
1.09737e-06
1.09737e-06
1.09995e-06
1.1004e-06
1.10185e-06
1.10173e-06
1.10041e-06
1.10032e-06
1.1003e-06
1.10027e-06
1.10031e-06
1.1004e-06
1.10164e-06
1.10181e-06
1.10161e-06
1.10053e-06
1.10178e-06
1.10185e-06
1.08736e-06
1.08724e-06
1.08714e-06
1.08569e-06
1.08561e-06
1.08557e-06
1.08566e-06
1.08708e-06
1.08723e-06
1.08714e-06
1.08524e-06
1.08287e-06
1.08287e-06
1.08287e-06
1.08287e-06
1.08533e-06
1.08591e-06
1.08569e-06
1.08287e-06
1.08287e-06
1.08287e-06
1.08287e-06
1.08287e-06
1.08287e-06
1.08582e-06
1.08731e-06
1.08736e-06
1.08561e-06
1.08287e-06
1.08287e-06
1.08287e-06
1.08287e-06
1.08287e-06
1.08287e-06
1.08579e-06
1.08711e-06
1.08724e-06
1.08557e-06
1.08287e-06
1.08287e-06
1.08287e-06
1.08287e-06
1.08287e-06
1.08287e-06
1.08577e-06
1.08603e-06
1.08566e-06
1.08287e-06
1.08287e-06
1.08287e-06
1.08287e-06
1.08287e-06
1.08287e-06
1.08581e-06
1.08728e-06
1.08708e-06
1.08533e-06
1.08287e-06
1.08287e-06
1.08287e-06
1.08287e-06
1.08545e-06
1.0859e-06
1.08734e-06
1.08723e-06
1.08591e-06
1.08582e-06
1.08579e-06
1.08577e-06
1.08581e-06
1.0859e-06
1.08714e-06
1.08731e-06
1.08711e-06
1.08603e-06
1.08728e-06
1.08734e-06
1.07286e-06
1.07274e-06
1.07264e-06
1.07119e-06
1.07111e-06
1.07107e-06
1.07116e-06
1.07258e-06
1.07273e-06
1.07264e-06
1.07074e-06
1.06837e-06
1.06837e-06
1.06837e-06
1.06837e-06
1.07083e-06
1.07141e-06
1.07119e-06
1.06837e-06
1.06837e-06
1.06837e-06
1.06837e-06
1.06837e-06
1.06837e-06
1.07132e-06
1.07281e-06
1.07286e-06
1.07111e-06
1.06837e-06
1.06837e-06
1.06837e-06
1.06837e-06
1.06837e-06
1.06837e-06
1.07129e-06
1.07261e-06
1.07274e-06
1.07107e-06
1.06837e-06
1.06837e-06
1.06837e-06
1.06837e-06
1.06837e-06
1.06837e-06
1.07127e-06
1.07153e-06
1.07116e-06
1.06837e-06
1.06837e-06
1.06837e-06
1.06837e-06
1.06837e-06
1.06837e-06
1.07131e-06
1.07278e-06
1.07258e-06
1.07083e-06
1.06837e-06
1.06837e-06
1.06837e-06
1.06837e-06
1.07095e-06
1.0714e-06
1.07284e-06
1.07273e-06
1.07141e-06
1.07132e-06
1.07129e-06
1.07127e-06
1.07131e-06
1.0714e-06
1.07264e-06
1.07281e-06
1.07261e-06
1.07153e-06
1.07278e-06
1.07284e-06
1.05836e-06
1.05824e-06
1.05814e-06
1.05669e-06
1.05661e-06
1.05657e-06
1.05666e-06
1.05808e-06
1.05823e-06
1.05814e-06
1.05624e-06
1.05387e-06
1.05387e-06
1.05387e-06
1.05387e-06
1.05633e-06
1.05691e-06
1.05669e-06
1.05387e-06
1.05387e-06
1.05387e-06
1.05387e-06
1.05387e-06
1.05387e-06
1.05682e-06
1.05831e-06
1.05836e-06
1.05661e-06
1.05387e-06
1.05387e-06
1.05387e-06
1.05387e-06
1.05387e-06
1.05387e-06
1.05679e-06
1.05811e-06
1.05824e-06
1.05657e-06
1.05387e-06
1.05387e-06
1.05387e-06
1.05387e-06
1.05387e-06
1.05387e-06
1.05677e-06
1.05703e-06
1.05666e-06
1.05387e-06
1.05387e-06
1.05387e-06
1.05387e-06
1.05387e-06
1.05387e-06
1.05681e-06
1.05828e-06
1.05808e-06
1.05633e-06
1.05387e-06
1.05387e-06
1.05387e-06
1.05387e-06
1.05645e-06
1.0569e-06
1.05834e-06
1.05823e-06
1.05691e-06
1.05682e-06
1.05679e-06
1.05677e-06
1.05681e-06
1.0569e-06
1.05814e-06
1.05831e-06
1.05811e-06
1.05703e-06
1.05828e-06
1.05834e-06
1.04386e-06
1.04374e-06
1.04364e-06
1.04219e-06
1.04211e-06
1.04207e-06
1.04216e-06
1.04358e-06
1.04373e-06
1.04364e-06
1.04174e-06
1.03937e-06
1.03937e-06
1.03937e-06
1.03937e-06
1.04183e-06
1.04241e-06
1.04219e-06
1.03937e-06
1.03937e-06
1.03937e-06
1.03937e-06
1.03937e-06
1.03937e-06
1.04233e-06
1.04381e-06
1.04386e-06
1.04211e-06
1.03937e-06
1.03937e-06
1.03937e-06
1.03937e-06
1.03937e-06
1.03937e-06
1.0423e-06
1.04361e-06
1.04374e-06
1.04207e-06
1.03937e-06
1.03937e-06
1.03937e-06
1.03937e-06
1.03937e-06
1.03937e-06
1.04227e-06
1.04253e-06
1.04216e-06
1.03937e-06
1.03937e-06
1.03937e-06
1.03937e-06
1.03937e-06
1.03937e-06
1.04232e-06
1.04378e-06
1.04358e-06
1.04183e-06
1.03937e-06
1.03937e-06
1.03937e-06
1.03937e-06
1.04195e-06
1.0424e-06
1.04385e-06
1.04373e-06
1.04241e-06
1.04232e-06
1.0423e-06
1.04227e-06
1.04231e-06
1.0424e-06
1.04364e-06
1.04381e-06
1.04361e-06
1.04253e-06
1.04378e-06
1.04384e-06
1.02936e-06
1.02924e-06
1.02914e-06
1.0277e-06
1.02761e-06
1.02757e-06
1.02766e-06
1.02908e-06
1.02923e-06
1.02914e-06
1.02724e-06
1.02487e-06
1.02487e-06
1.02487e-06
1.02487e-06
1.02733e-06
1.02791e-06
1.0277e-06
1.02487e-06
1.02487e-06
1.02487e-06
1.02487e-06
1.02487e-06
1.02487e-06
1.02783e-06
1.02931e-06
1.02936e-06
1.02761e-06
1.02487e-06
1.02487e-06
1.02487e-06
1.02487e-06
1.02487e-06
1.02487e-06
1.0278e-06
1.02911e-06
1.02924e-06
1.02757e-06
1.02487e-06
1.02487e-06
1.02487e-06
1.02487e-06
1.02487e-06
1.02487e-06
1.02777e-06
1.02803e-06
1.02766e-06
1.02487e-06
1.02487e-06
1.02487e-06
1.02487e-06
1.02487e-06
1.02487e-06
1.02782e-06
1.02928e-06
1.02908e-06
1.02733e-06
1.02487e-06
1.02487e-06
1.02487e-06
1.02487e-06
1.02745e-06
1.02791e-06
1.02935e-06
1.02923e-06
1.02791e-06
1.02783e-06
1.0278e-06
1.02777e-06
1.02782e-06
1.02791e-06
1.02914e-06
1.02931e-06
1.02911e-06
1.02803e-06
1.02928e-06
1.02935e-06
1.01486e-06
1.01474e-06
1.01464e-06
1.0132e-06
1.01311e-06
1.01307e-06
1.01316e-06
1.01458e-06
1.01473e-06
1.01464e-06
1.01274e-06
1.01037e-06
1.01037e-06
1.01037e-06
1.01037e-06
1.01283e-06
1.01341e-06
1.0132e-06
1.01037e-06
1.01037e-06
1.01037e-06
1.01037e-06
1.01037e-06
1.01037e-06
1.01333e-06
1.01481e-06
1.01486e-06
1.01311e-06
1.01037e-06
1.01037e-06
1.01037e-06
1.01037e-06
1.01037e-06
1.01037e-06
1.0133e-06
1.01461e-06
1.01474e-06
1.01307e-06
1.01037e-06
1.01037e-06
1.01037e-06
1.01037e-06
1.01037e-06
1.01037e-06
1.01327e-06
1.01353e-06
1.01316e-06
1.01037e-06
1.01037e-06
1.01037e-06
1.01037e-06
1.01037e-06
1.01037e-06
1.01332e-06
1.01478e-06
1.01458e-06
1.01283e-06
1.01037e-06
1.01037e-06
1.01037e-06
1.01037e-06
1.01295e-06
1.01341e-06
1.01485e-06
1.01473e-06
1.01341e-06
1.01333e-06
1.0133e-06
1.01327e-06
1.01332e-06
1.01341e-06
1.01464e-06
1.01481e-06
1.01461e-06
1.01353e-06
1.01478e-06
1.01485e-06
1.00036e-06
1.00024e-06
1.00014e-06
9.98697e-07
9.98615e-07
9.98574e-07
9.98665e-07
1.00008e-06
1.00023e-06
1.00014e-06
9.98244e-07
9.9587e-07
9.9587e-07
9.9587e-07
9.9587e-07
9.98335e-07
9.98909e-07
9.98697e-07
9.9587e-07
9.9587e-07
9.9587e-07
9.9587e-07
9.9587e-07
9.9587e-07
9.98827e-07
1.00031e-06
1.00036e-06
9.98615e-07
9.9587e-07
9.9587e-07
9.9587e-07
9.9587e-07
9.9587e-07
9.9587e-07
9.98797e-07
1.00011e-06
1.00024e-06
9.98574e-07
9.9587e-07
9.9587e-07
9.9587e-07
9.9587e-07
9.9587e-07
9.9587e-07
9.98773e-07
9.99031e-07
9.98665e-07
9.9587e-07
9.9587e-07
9.9587e-07
9.9587e-07
9.9587e-07
9.9587e-07
9.98817e-07
1.00028e-06
1.00008e-06
9.98334e-07
9.9587e-07
9.9587e-07
9.9587e-07
9.9587e-07
9.98452e-07
9.98907e-07
1.00035e-06
1.00023e-06
9.98909e-07
9.98827e-07
9.98797e-07
9.98773e-07
9.98817e-07
9.98907e-07
1.00015e-06
1.00031e-06
1.00011e-06
9.99031e-07
1.00028e-06
1.00035e-06
9.8586e-07
9.85744e-07
9.85638e-07
9.84197e-07
9.84115e-07
9.84074e-07
9.84165e-07
9.8558e-07
9.85733e-07
9.85638e-07
9.83745e-07
9.8137e-07
9.8137e-07
9.8137e-07
9.8137e-07
9.83835e-07
9.84409e-07
9.84197e-07
9.8137e-07
9.81371e-07
9.8137e-07
9.8137e-07
9.81371e-07
9.8137e-07
9.84327e-07
9.85812e-07
9.8586e-07
9.84115e-07
9.8137e-07
9.8137e-07
9.8137e-07
9.8137e-07
9.8137e-07
9.8137e-07
9.84297e-07
9.85614e-07
9.85744e-07
9.84074e-07
9.8137e-07
9.8137e-07
9.8137e-07
9.8137e-07
9.8137e-07
9.8137e-07
9.84274e-07
9.84531e-07
9.84165e-07
9.8137e-07
9.81371e-07
9.8137e-07
9.8137e-07
9.81371e-07
9.8137e-07
9.84317e-07
9.85783e-07
9.8558e-07
9.83835e-07
9.8137e-07
9.8137e-07
9.8137e-07
9.8137e-07
9.83952e-07
9.84407e-07
9.85847e-07
9.85733e-07
9.84409e-07
9.84327e-07
9.84297e-07
9.84274e-07
9.84317e-07
9.84407e-07
9.85646e-07
9.85812e-07
9.85614e-07
9.84531e-07
9.85783e-07
9.85847e-07
9.71361e-07
9.71245e-07
9.71139e-07
9.69698e-07
9.69616e-07
9.69575e-07
9.69666e-07
9.71081e-07
9.71234e-07
9.71139e-07
9.69246e-07
9.66871e-07
9.66871e-07
9.66871e-07
9.66871e-07
9.69336e-07
9.6991e-07
9.69698e-07
9.66871e-07
9.66871e-07
9.66871e-07
9.66871e-07
9.66871e-07
9.66871e-07
9.69828e-07
9.71313e-07
9.71361e-07
9.69616e-07
9.66871e-07
9.66871e-07
9.66871e-07
9.66871e-07
9.66871e-07
9.66871e-07
9.69798e-07
9.71115e-07
9.71245e-07
9.69575e-07
9.66871e-07
9.66871e-07
9.66871e-07
9.66871e-07
9.66871e-07
9.66871e-07
9.69774e-07
9.70032e-07
9.69666e-07
9.66871e-07
9.66871e-07
9.66871e-07
9.66871e-07
9.66871e-07
9.66871e-07
9.69818e-07
9.71284e-07
9.71081e-07
9.69336e-07
9.66871e-07
9.66871e-07
9.66871e-07
9.66871e-07
9.69453e-07
9.69908e-07
9.71348e-07
9.71234e-07
9.6991e-07
9.69828e-07
9.69798e-07
9.69774e-07
9.69818e-07
9.69908e-07
9.71146e-07
9.71313e-07
9.71115e-07
9.70032e-07
9.71284e-07
9.71348e-07
9.56861e-07
9.56745e-07
9.56639e-07
9.55198e-07
9.55116e-07
9.55075e-07
9.55166e-07
9.56581e-07
9.56734e-07
9.56639e-07
9.54746e-07
9.52371e-07
9.52371e-07
9.52371e-07
9.52371e-07
9.54836e-07
9.5541e-07
9.55198e-07
9.52371e-07
9.52371e-07
9.52371e-07
9.52371e-07
9.52371e-07
9.52371e-07
9.55328e-07
9.56813e-07
9.56861e-07
9.55116e-07
9.52371e-07
9.52371e-07
9.52371e-07
9.52371e-07
9.52371e-07
9.52371e-07
9.55298e-07
9.56615e-07
9.56745e-07
9.55075e-07
9.52371e-07
9.52371e-07
9.52371e-07
9.52371e-07
9.52371e-07
9.52371e-07
9.55275e-07
9.55532e-07
9.55166e-07
9.52371e-07
9.52371e-07
9.52371e-07
9.52371e-07
9.52371e-07
9.52371e-07
9.55318e-07
9.56784e-07
9.56581e-07
9.54836e-07
9.52371e-07
9.52371e-07
9.52371e-07
9.52371e-07
9.54953e-07
9.55408e-07
9.56848e-07
9.56734e-07
9.5541e-07
9.55328e-07
9.55298e-07
9.55275e-07
9.55318e-07
9.55408e-07
9.56647e-07
9.56813e-07
9.56615e-07
9.55532e-07
9.56784e-07
9.56848e-07
9.42361e-07
9.42245e-07
9.42139e-07
9.40698e-07
9.40616e-07
9.40575e-07
9.40666e-07
9.42081e-07
9.42234e-07
9.42139e-07
9.40246e-07
9.37871e-07
9.37871e-07
9.37871e-07
9.37871e-07
9.40336e-07
9.4091e-07
9.40698e-07
9.37871e-07
9.37871e-07
9.37871e-07
9.37871e-07
9.37871e-07
9.37871e-07
9.40828e-07
9.42313e-07
9.42362e-07
9.40616e-07
9.37871e-07
9.37871e-07
9.37871e-07
9.37871e-07
9.37871e-07
9.37871e-07
9.40798e-07
9.42116e-07
9.42245e-07
9.40575e-07
9.37871e-07
9.37871e-07
9.37871e-07
9.37871e-07
9.37871e-07
9.37871e-07
9.40775e-07
9.41032e-07
9.40666e-07
9.37871e-07
9.37871e-07
9.37871e-07
9.37871e-07
9.37871e-07
9.37871e-07
9.40818e-07
9.42284e-07
9.42081e-07
9.40336e-07
9.37871e-07
9.37871e-07
9.37871e-07
9.37871e-07
9.40453e-07
9.40908e-07
9.42348e-07
9.42234e-07
9.4091e-07
9.40828e-07
9.40798e-07
9.40775e-07
9.40818e-07
9.40908e-07
9.42147e-07
9.42313e-07
9.42115e-07
9.41032e-07
9.42284e-07
9.42348e-07
9.27861e-07
9.27745e-07
9.27639e-07
9.26198e-07
9.26116e-07
9.26075e-07
9.26166e-07
9.27581e-07
9.27734e-07
9.27639e-07
9.25746e-07
9.23371e-07
9.23371e-07
9.23371e-07
9.23371e-07
9.25836e-07
9.2641e-07
9.26198e-07
9.23371e-07
9.23371e-07
9.23371e-07
9.23371e-07
9.23371e-07
9.23371e-07
9.26328e-07
9.27813e-07
9.27861e-07
9.26116e-07
9.23371e-07
9.23371e-07
9.23371e-07
9.23371e-07
9.23371e-07
9.23371e-07
9.26298e-07
9.27616e-07
9.27745e-07
9.26075e-07
9.23371e-07
9.23371e-07
9.23371e-07
9.23371e-07
9.23371e-07
9.23371e-07
9.26275e-07
9.26532e-07
9.26166e-07
9.23371e-07
9.23371e-07
9.23371e-07
9.23371e-07
9.23371e-07
9.23371e-07
9.26318e-07
9.27784e-07
9.27581e-07
9.25836e-07
9.23371e-07