/*--------------------------------*- C++ -*----------------------------------*\
| =========                 |                                                 |
| \\      /  F ield         | OpenFOAM: The Open Source CFD Toolbox           |
|  \\    /   O peration     | Version:  v2012                                 |
|   \\  /    A nd           | Website:  www.openfoam.com                      |
|    \\/     M anipulation  |                                                 |
\*---------------------------------------------------------------------------*/
FoamFile
{
    version     2.0;
    format      ascii;
    class       volScalarField;
    location    "300";
    object      epsilon;
}
// * * * * * * * * * * * * * * * * * * * * * * * * * * * * * * * * * * * * * //

dimensions      [0 2 -3 0 0 0 0];


internalField   nonuniform List<scalar> 
85864
(
3.23677e-07
8.6892e-07
1.15427e-06
8.68965e-07
8.6887e-07
8.69057e-07
1.1543e-06
9.16195e-06
9.1641e-06
4.09527e-06
3.23733e-07
1.84294e-05
3.47739e-06
1.84271e-05
1.84295e-05
5.46398e-06
5.4659e-06
3.47724e-06
3.47788e-06
5.64126e-07
2.10964e-06
9.16329e-06
4.0953e-06
5.64163e-07
3.47772e-06
2.10953e-06
5.46575e-06
5.46407e-06
1.8428e-05
9.16325e-06
9.16492e-06
7.09002e-06
2.20581e-05
2.20651e-05
9.16696e-06
7.09158e-06
7.09123e-06
2.20585e-05
1.22103e-05
4.09583e-06
4.74765e-06
1.08306e-05
4.74797e-06
1.08335e-05
1.22072e-05
1.84345e-05
1.8432e-05
1.84344e-05
4.54163e-06
2.81371e-06
5.46415e-06
9.50109e-06
9.5041e-06
2.81426e-06
4.54117e-06
4.54759e-06
2.81467e-06
5.46622e-06
9.50572e-06
9.50934e-06
2.81569e-06
4.5471e-06
9.73783e-06
2.17285e-05
2.17279e-05
2.17348e-05
2.17342e-05
9.73819e-06
2.2065e-05
9.16613e-06
7.09012e-06
7.08962e-06
2.2058e-05
1.22101e-05
4.09575e-06
1.08303e-05
4.74745e-06
1.08332e-05
4.74769e-06
1.22071e-05
4.54767e-06
2.81491e-06
5.46601e-06
9.50527e-06
9.50901e-06
2.81538e-06
4.54738e-06
4.54156e-06
2.81354e-06
5.46408e-06
9.50104e-06
2.81454e-06
9.50403e-06
4.5415e-06
9.73826e-06
2.17282e-05
2.17286e-05
2.17346e-05
2.17349e-05
9.73862e-06
1.8433e-05
9.16582e-06
1.68737e-07
2.67137e-06
1.77208e-06
1.77216e-06
1.15328e-06
1.77163e-06
1.77215e-06
2.6713e-06
2.67127e-06
1.77205e-06
1.77202e-06
1.15331e-06
1.77182e-06
1.77198e-06
2.67128e-06
1.68793e-07
1.62071e-06
2.03596e-06
3.47739e-06
2.86245e-06
2.0358e-06
2.86309e-06
1.62269e-06
1.62154e-06
2.0357e-06
3.47723e-06
2.86238e-06
2.86307e-06
2.03582e-06
1.62105e-06
1.62081e-06
2.03619e-06
3.47834e-06
2.86332e-06
2.86347e-06
2.03629e-06
1.62281e-06
1.41964e-06
2.11049e-06
2.36851e-06
1.28512e-06
2.36932e-06
1.28379e-06
1.42224e-06
1.62166e-06
2.03577e-06
3.47791e-06
2.8625e-06
2.8632e-06
2.03661e-06
1.62117e-06
1.42098e-06
2.11042e-06
1.28479e-06
2.36827e-06
1.28372e-06
2.36908e-06
1.42094e-06
8.68824e-07
1.15468e-06
3.39703e-07
8.92259e-07
8.92351e-07
1.17378e-06
3.55972e-07
9.14724e-07
9.14819e-07
1.19217e-06
3.72408e-07
9.36223e-07
9.36325e-07
1.20977e-06
3.88939e-07
9.56777e-07
9.56887e-07
1.22662e-06
4.05492e-07
9.76417e-07
9.76541e-07
1.24271e-06
4.22005e-07
9.95194e-07
9.9533e-07
1.2581e-06
4.38417e-07
1.01315e-06
1.01329e-06
1.27285e-06
4.54677e-07
1.03035e-06
1.03048e-06
1.28717e-06
4.7074e-07
1.04685e-06
1.04696e-06
1.30095e-06
4.86564e-07
1.0627e-06
1.06277e-06
1.31424e-06
5.02103e-07
1.07791e-06
1.07793e-06
1.327e-06
5.17297e-07
1.09249e-06
1.09245e-06
1.33927e-06
5.32066e-07
1.10636e-06
1.10628e-06
1.35105e-06
5.46309e-07
1.11944e-06
1.11934e-06
1.36212e-06
5.59907e-07
1.13161e-06
1.13152e-06
1.37246e-06
5.72737e-07
1.14277e-06
1.14273e-06
1.38198e-06
5.84677e-07
1.15281e-06
1.15285e-06
1.39057e-06
5.95632e-07
1.16169e-06
1.1618e-06
1.39824e-06
6.05544e-07
1.16942e-06
1.16959e-06
1.40495e-06
6.1439e-07
1.17604e-06
1.17625e-06
1.41088e-06
6.22188e-07
1.18161e-06
1.18182e-06
1.41582e-06
6.28987e-07
1.18618e-06
1.18639e-06
1.41991e-06
6.34873e-07
1.1899e-06
1.19005e-06
1.42321e-06
6.39908e-07
1.19287e-06
1.19298e-06
1.42583e-06
6.44157e-07
1.19525e-06
1.19532e-06
1.42795e-06
6.47713e-07
1.1972e-06
1.19721e-06
1.42974e-06
6.50693e-07
1.19886e-06
1.1988e-06
1.43085e-06
6.53186e-07
1.20026e-06
1.20024e-06
1.4321e-06
6.5521e-07
1.2015e-06
1.20151e-06
1.43322e-06
6.56798e-07
1.20251e-06
1.2026e-06
1.43354e-06
6.58051e-07
1.20325e-06
1.20344e-06
1.43416e-06
6.59011e-07
1.2037e-06
1.20398e-06
1.43483e-06
6.59618e-07
1.20388e-06
1.20424e-06
1.43501e-06
6.5991e-07
1.20381e-06
1.20421e-06
1.43486e-06
6.60134e-07
1.20373e-06
1.20414e-06
1.43467e-06
6.60199e-07
1.2036e-06
1.20403e-06
1.43454e-06
6.60184e-07
1.20349e-06
1.20392e-06
1.43484e-06
6.60134e-07
1.20343e-06
1.20389e-06
1.43484e-06
6.60096e-07
1.20337e-06
1.20386e-06
1.43446e-06
6.60049e-07
1.20333e-06
1.20383e-06
1.43447e-06
6.60007e-07
1.20332e-06
1.20383e-06
1.43476e-06
6.59993e-07
1.20335e-06
1.20385e-06
1.43494e-06
6.60019e-07
1.20345e-06
1.2039e-06
1.43493e-06
6.60049e-07
1.20358e-06
1.20398e-06
1.43506e-06
6.60077e-07
1.20375e-06
1.20409e-06
1.43511e-06
6.59823e-07
1.20355e-06
1.20381e-06
1.43472e-06
6.40112e-07
1.14293e-06
1.14305e-06
1.39515e-06
1.16783e-06
8.69003e-07
8.86608e-07
8.86658e-07
1.15389e-06
1.1679e-06
8.8651e-07
8.86705e-07
8.6908e-07
8.86465e-07
8.86735e-07
1.16789e-06
8.68946e-07
8.86557e-07
8.86603e-07
1.16802e-06
1.17355e-06
1.18648e-06
8.92386e-07
8.92428e-07
9.09303e-07
9.09357e-07
1.17328e-06
1.18651e-06
8.92295e-07
8.92474e-07
9.09208e-07
9.09397e-07
8.92509e-07
9.09168e-07
9.09433e-07
1.17355e-06
1.18658e-06
8.92377e-07
9.0926e-07
9.09308e-07
1.18665e-06
1.19197e-06
1.20432e-06
9.14837e-07
9.14883e-07
9.31029e-07
9.31084e-07
1.19182e-06
1.20433e-06
9.14751e-07
9.14927e-07
9.30934e-07
9.31127e-07
9.14965e-07
9.309e-07
9.31156e-07
1.192e-06
1.20441e-06
9.14842e-07
9.30998e-07
9.31044e-07
1.20443e-06
1.20958e-06
1.22134e-06
9.36326e-07
9.36371e-07
9.51795e-07
9.51854e-07
1.20946e-06
1.22135e-06
9.36238e-07
9.36418e-07
9.517e-07
9.51901e-07
9.36449e-07
9.51678e-07
9.51926e-07
1.20964e-06
1.22153e-06
9.36341e-07
9.51786e-07
9.51826e-07
1.22143e-06
1.22638e-06
1.23765e-06
9.56858e-07
9.5691e-07
9.71633e-07
9.71703e-07
1.22636e-06
1.23768e-06
9.5677e-07
9.56958e-07
9.71539e-07
9.71754e-07
9.56986e-07
9.71533e-07
9.71771e-07
1.22644e-06
1.23783e-06
9.56889e-07
9.71652e-07
9.71685e-07
1.23778e-06
1.24245e-06
1.25327e-06
9.76474e-07
9.76537e-07
9.90589e-07
9.90673e-07
1.24245e-06
1.25321e-06
9.76386e-07
9.7659e-07
9.90495e-07
9.90726e-07
9.7661e-07
9.9051e-07
9.90736e-07
1.24254e-06
1.25337e-06
9.76528e-07
9.90643e-07
9.90666e-07
1.2534e-06
1.25784e-06
1.26825e-06
9.95215e-07
9.95297e-07
1.0087e-06
1.00881e-06
1.2579e-06
1.26826e-06
9.95126e-07
9.95349e-07
1.0086e-06
1.00886e-06
9.95361e-07
1.00866e-06
1.00886e-06
1.25804e-06
1.2683e-06
9.95294e-07
1.0088e-06
1.0088e-06
1.26834e-06
1.27264e-06
1.28262e-06
1.01313e-06
1.01323e-06
1.02603e-06
1.02616e-06
1.27274e-06
1.28262e-06
1.01303e-06
1.01328e-06
1.02593e-06
1.0262e-06
1.01328e-06
1.02603e-06
1.02619e-06
1.27292e-06
1.28274e-06
1.01323e-06
1.02617e-06
1.02615e-06
1.28267e-06
1.2869e-06
1.29639e-06
1.03026e-06
1.03039e-06
1.04263e-06
1.04279e-06
1.28707e-06
1.29654e-06
1.03017e-06
1.03043e-06
1.04253e-06
1.04281e-06
1.03042e-06
1.04269e-06
1.0428e-06
1.28715e-06
1.29658e-06
1.03039e-06
1.04281e-06
1.04278e-06
1.29654e-06
1.30068e-06
1.3097e-06
1.04669e-06
1.04685e-06
1.05857e-06
1.05877e-06
1.3009e-06
1.31e-06
1.04659e-06
1.04687e-06
1.05846e-06
1.05875e-06
1.04685e-06
1.05869e-06
1.05874e-06
1.30096e-06
1.31001e-06
1.04685e-06
1.05878e-06
1.05874e-06
1.30994e-06
1.314e-06
1.32262e-06
1.06246e-06
1.06267e-06
1.07388e-06
1.07413e-06
1.31419e-06
1.32294e-06
1.06235e-06
1.06264e-06
1.07376e-06
1.07406e-06
1.06263e-06
1.07407e-06
1.07405e-06
1.31419e-06
1.3229e-06
1.06264e-06
1.0741e-06
1.07406e-06
1.32286e-06
1.32682e-06
1.3351e-06
1.07761e-06
1.07786e-06
1.08858e-06
1.08886e-06
1.32705e-06
1.33537e-06
1.07749e-06
1.07777e-06
1.08845e-06
1.08874e-06
1.07778e-06
1.08882e-06
1.08874e-06
1.32697e-06
1.33532e-06
1.07778e-06
1.0888e-06
1.08873e-06
1.33526e-06
1.33911e-06
1.34702e-06
1.09213e-06
1.09241e-06
1.10262e-06
1.10292e-06
1.33944e-06
1.34732e-06
1.092e-06
1.09228e-06
1.10247e-06
1.10275e-06
1.09229e-06
1.1029e-06
1.10277e-06
1.33929e-06
1.34721e-06
1.09227e-06
1.10282e-06
1.10273e-06
1.34711e-06
1.35091e-06
1.35829e-06
1.10598e-06
1.10627e-06
1.11594e-06
1.11623e-06
1.35126e-06
1.35858e-06
1.10583e-06
1.1061e-06
1.11578e-06
1.11603e-06
1.10612e-06
1.11621e-06
1.11605e-06
1.35108e-06
1.35849e-06
1.10607e-06
1.11611e-06
1.11597e-06
1.35834e-06
1.36208e-06
1.36885e-06
1.11907e-06
1.11935e-06
1.12841e-06
1.12867e-06
1.36237e-06
1.36909e-06
1.11891e-06
1.11916e-06
1.12825e-06
1.12849e-06
1.11918e-06
1.12867e-06
1.12849e-06
1.36224e-06
1.36905e-06
1.11909e-06
1.12857e-06
1.12837e-06
1.36886e-06
1.37251e-06
1.37861e-06
1.13129e-06
1.13154e-06
1.13992e-06
1.14012e-06
1.3727e-06
1.37875e-06
1.13115e-06
1.13138e-06
1.13979e-06
1.14001e-06
1.13138e-06
1.14013e-06
1.13998e-06
1.37264e-06
1.37876e-06
1.13124e-06
1.14007e-06
1.13982e-06
1.37855e-06
1.38206e-06
1.3874e-06
1.14252e-06
1.14271e-06
1.15035e-06
1.15048e-06
1.38219e-06
1.38746e-06
1.1424e-06
1.14263e-06
1.15026e-06
1.15048e-06
1.14258e-06
1.1505e-06
1.15039e-06
1.38221e-06
1.38759e-06
1.14242e-06
1.15052e-06
1.15022e-06
1.38732e-06
1.39066e-06
1.39524e-06
1.15266e-06
1.15278e-06
1.15962e-06
1.1597e-06
1.3907e-06
1.39524e-06
1.15257e-06
1.1528e-06
1.15956e-06
1.15979e-06
1.1527e-06
1.15972e-06
1.15966e-06
1.39083e-06
1.39543e-06
1.15253e-06
1.15981e-06
1.15951e-06
1.39518e-06
1.3983e-06
1.40212e-06
1.16162e-06
1.16169e-06
1.1677e-06
1.16774e-06
1.3983e-06
1.40209e-06
1.16158e-06
1.16181e-06
1.16768e-06
1.16791e-06
1.16167e-06
1.16777e-06
1.16776e-06
1.39849e-06
1.40232e-06
1.16152e-06
1.16792e-06
1.16763e-06
1.40206e-06
1.40501e-06
1.40818e-06
1.1694e-06
1.16945e-06
1.17462e-06
1.17466e-06
1.40499e-06
1.40817e-06
1.16939e-06
1.16963e-06
1.17462e-06
1.17487e-06
1.16949e-06
1.1747e-06
1.17475e-06
1.40521e-06
1.40842e-06
1.16936e-06
1.1749e-06
1.17462e-06
1.40816e-06
1.41089e-06
1.41328e-06
1.17605e-06
1.17609e-06
1.18045e-06
1.1805e-06
1.41089e-06
1.41329e-06
1.17605e-06
1.17631e-06
1.18044e-06
1.18071e-06
1.1762e-06
1.18054e-06
1.18064e-06
1.41113e-06
1.41353e-06
1.17606e-06
1.18075e-06
1.18048e-06
1.41327e-06
1.41581e-06
1.4175e-06
1.18162e-06
1.18167e-06
1.18526e-06
1.18531e-06
1.41584e-06
1.4175e-06
1.18163e-06
1.18188e-06
1.18527e-06
1.18551e-06
1.18184e-06
1.18536e-06
1.18553e-06
1.41606e-06
1.41772e-06
1.18167e-06
1.18556e-06
1.18531e-06
1.41752e-06
1.41986e-06
1.42089e-06
1.18621e-06
1.18626e-06
1.18918e-06
1.18923e-06
1.41987e-06
1.42088e-06
1.18624e-06
1.18645e-06
1.18921e-06
1.18938e-06
1.18649e-06
1.18927e-06
1.18946e-06
1.42009e-06
1.42107e-06
1.18627e-06
1.18943e-06
1.18923e-06
1.42096e-06
1.42311e-06
1.42364e-06
1.18996e-06
1.19e-06
1.19236e-06
1.19242e-06
1.42311e-06
1.42352e-06
1.18999e-06
1.19014e-06
1.19239e-06
1.19253e-06
1.19022e-06
1.19238e-06
1.19257e-06
1.42329e-06
1.42375e-06
1.19e-06
1.1925e-06
1.19237e-06
1.4237e-06
1.42578e-06
1.42582e-06
1.19299e-06
1.19306e-06
1.19495e-06
1.19501e-06
1.42572e-06
1.42571e-06
1.19303e-06
1.19316e-06
1.19495e-06
1.19511e-06
1.19318e-06
1.19485e-06
1.19504e-06
1.42586e-06
1.42577e-06
1.19298e-06
1.19494e-06
1.19485e-06
1.42586e-06
1.42821e-06
1.42798e-06
1.19547e-06
1.19553e-06
1.19701e-06
1.19709e-06
1.42775e-06
1.42767e-06
1.19546e-06
1.19564e-06
1.19699e-06
1.1972e-06
1.19554e-06
1.19687e-06
1.19694e-06
1.42822e-06
1.42753e-06
1.19536e-06
1.19689e-06
1.1968e-06
1.42733e-06
1.42971e-06
1.42941e-06
1.19745e-06
1.19754e-06
1.19871e-06
1.19886e-06
1.42944e-06
1.42893e-06
1.19743e-06
1.19763e-06
1.19868e-06
1.19886e-06
1.19734e-06
1.19856e-06
1.19845e-06
1.42992e-06
1.42906e-06
1.19722e-06
1.19851e-06
1.19834e-06
1.42863e-06
1.43115e-06
1.4308e-06
1.19911e-06
1.19927e-06
1.20025e-06
1.20035e-06
1.43136e-06
1.43031e-06
1.19908e-06
1.19924e-06
1.20019e-06
1.20031e-06
1.19881e-06
1.2e-06
1.19984e-06
1.43099e-06
1.43045e-06
1.19871e-06
1.19998e-06
1.19968e-06
1.4298e-06
1.43252e-06
1.43169e-06
1.20062e-06
1.20071e-06
1.20156e-06
1.20158e-06
1.43267e-06
1.43143e-06
1.20056e-06
1.20069e-06
1.20147e-06
1.20164e-06
1.2002e-06
1.20128e-06
1.20105e-06
1.43217e-06
1.43163e-06
1.20003e-06
1.20128e-06
1.20091e-06
1.43096e-06
1.43407e-06
1.43261e-06
1.2019e-06
1.2019e-06
1.20261e-06
1.20258e-06
1.43376e-06
1.43239e-06
1.20181e-06
1.20199e-06
1.20255e-06
1.2027e-06
1.20138e-06
1.20233e-06
1.202e-06
1.43333e-06
1.43223e-06
1.20125e-06
1.20239e-06
1.20196e-06
1.43197e-06
1.43491e-06
1.43318e-06
1.20292e-06
1.20291e-06
1.20345e-06
1.20346e-06
1.43422e-06
1.43309e-06
1.20287e-06
1.20302e-06
1.20343e-06
1.20356e-06
1.20227e-06
1.20311e-06
1.20277e-06
1.43457e-06
1.43285e-06
1.20225e-06
1.20329e-06
1.20278e-06
1.4323e-06
1.43546e-06
1.4335e-06
1.20372e-06
1.20374e-06
1.20404e-06
1.20401e-06
1.43473e-06
1.43342e-06
1.20374e-06
1.20382e-06
1.20412e-06
1.20406e-06
1.20307e-06
1.20363e-06
1.20342e-06
1.43512e-06
1.43333e-06
1.20307e-06
1.20389e-06
1.20342e-06
1.43261e-06
1.43575e-06
1.43364e-06
1.2042e-06
1.20418e-06
1.20435e-06
1.20424e-06
1.435e-06
1.4334e-06
1.20429e-06
1.20423e-06
1.20441e-06
1.20429e-06
1.20364e-06
1.20386e-06
1.20377e-06
1.43489e-06
1.43301e-06
1.20364e-06
1.20422e-06
1.20379e-06
1.43296e-06
1.43588e-06
1.43364e-06
1.20447e-06
1.20428e-06
1.2044e-06
1.20418e-06
1.43494e-06
1.43324e-06
1.20454e-06
1.20434e-06
1.20452e-06
1.20426e-06
1.20388e-06
1.20382e-06
1.20381e-06
1.43523e-06
1.43303e-06
1.20392e-06
1.20421e-06
1.20385e-06
1.43308e-06
1.43588e-06
1.43352e-06
1.20447e-06
1.20421e-06
1.20436e-06
1.20405e-06
1.43477e-06
1.43303e-06
1.20458e-06
1.20431e-06
1.20446e-06
1.2042e-06
1.20387e-06
1.20374e-06
1.20373e-06
1.43528e-06
1.43307e-06
1.20391e-06
1.20414e-06
1.20377e-06
1.4331e-06
1.43573e-06
1.43336e-06
1.2044e-06
1.20409e-06
1.20425e-06
1.20392e-06
1.43458e-06
1.433e-06
1.2045e-06
1.20424e-06
1.20434e-06
1.20408e-06
1.20379e-06
1.20358e-06
1.20363e-06
1.43532e-06
1.43308e-06
1.20382e-06
1.20404e-06
1.20366e-06
1.433e-06
1.4356e-06
1.43335e-06
1.20431e-06
1.20398e-06
1.20422e-06
1.20382e-06
1.43457e-06
1.43303e-06
1.20441e-06
1.20415e-06
1.20422e-06
1.20396e-06
1.20369e-06
1.20348e-06
1.20353e-06
1.43533e-06
1.4331e-06
1.20371e-06
1.2039e-06
1.20361e-06
1.43265e-06
1.43558e-06
1.43337e-06
1.20423e-06
1.20389e-06
1.20411e-06
1.20378e-06
1.4346e-06
1.43311e-06
1.20429e-06
1.20404e-06
1.20414e-06
1.20392e-06
1.2036e-06
1.20341e-06
1.20347e-06
1.43533e-06
1.43307e-06
1.20361e-06
1.20385e-06
1.20352e-06
1.43282e-06
1.43562e-06
1.43331e-06
1.20411e-06
1.20379e-06
1.204e-06
1.20368e-06
1.43469e-06
1.43315e-06
1.2042e-06
1.20394e-06
1.20407e-06
1.20386e-06
1.20353e-06
1.20332e-06
1.2034e-06
1.43531e-06
1.43324e-06
1.20353e-06
1.20381e-06
1.20343e-06
1.43288e-06
1.43552e-06
1.43322e-06
1.20401e-06
1.20369e-06
1.20392e-06
1.2036e-06
1.43473e-06
1.43319e-06
1.20407e-06
1.20389e-06
1.20395e-06
1.20384e-06
1.2034e-06
1.20327e-06
1.20327e-06
1.43507e-06
1.43347e-06
1.20345e-06
1.20377e-06
1.20334e-06
1.4327e-06
1.43545e-06
1.43319e-06
1.20395e-06
1.20363e-06
1.20385e-06
1.20355e-06
1.43477e-06
1.43326e-06
1.20397e-06
1.20388e-06
1.20386e-06
1.20383e-06
1.20329e-06
1.20323e-06
1.20318e-06
1.43505e-06
1.43358e-06
1.20337e-06
1.20374e-06
1.20327e-06
1.43258e-06
1.43539e-06
1.43311e-06
1.2039e-06
1.2036e-06
1.2038e-06
1.20352e-06
1.43485e-06
1.43297e-06
1.2039e-06
1.2039e-06
1.20382e-06
1.20387e-06
1.20324e-06
1.20322e-06
1.20316e-06
1.43517e-06
1.43338e-06
1.20333e-06
1.20373e-06
1.20327e-06
1.43311e-06
1.43533e-06
1.4336e-06
1.20388e-06
1.2036e-06
1.20378e-06
1.20353e-06
1.43526e-06
1.43315e-06
1.20392e-06
1.20398e-06
1.20389e-06
1.20395e-06
1.20325e-06
1.20327e-06
1.20319e-06
1.43568e-06
1.43357e-06
1.20337e-06
1.20374e-06
1.20332e-06
1.43331e-06
1.43521e-06
1.43379e-06
1.20392e-06
1.20366e-06
1.20383e-06
1.20359e-06
1.43538e-06
1.43367e-06
1.20404e-06
1.20411e-06
1.20401e-06
1.20406e-06
1.20333e-06
1.20335e-06
1.20327e-06
1.43579e-06
1.43368e-06
1.20346e-06
1.20376e-06
1.2034e-06
1.43312e-06
1.43541e-06
1.43398e-06
1.20402e-06
1.20379e-06
1.20392e-06
1.20372e-06
1.4353e-06
1.43381e-06
1.20421e-06
1.20426e-06
1.20414e-06
1.20416e-06
1.20347e-06
1.20346e-06
1.20339e-06
1.43589e-06
1.43367e-06
1.2036e-06
1.20381e-06
1.20351e-06
1.43314e-06
1.43571e-06
1.43319e-06
1.20418e-06
1.20398e-06
1.20366e-06
1.20348e-06
1.43552e-06
1.43294e-06
1.2044e-06
1.20441e-06
1.20387e-06
1.20386e-06
1.20366e-06
1.20322e-06
1.20317e-06
1.43584e-06
1.43351e-06
1.20377e-06
1.20349e-06
1.20327e-06
1.43317e-06
1.43509e-06
1.41486e-06
1.20397e-06
1.2038e-06
1.18388e-06
1.18373e-06
1.43496e-06
1.41481e-06
1.20418e-06
1.20417e-06
1.18417e-06
1.18399e-06
1.20349e-06
1.1838e-06
1.1834e-06
1.43479e-06
1.41478e-06
1.20358e-06
1.18395e-06
1.18354e-06
1.41384e-06
1.39479e-06
1.14331e-06
1.14313e-06
1.3946e-06
1.14359e-06
1.14337e-06
6.39833e-07
6.39992e-07
6.39994e-07
1.14321e-06
1.39458e-06
1.14337e-06
4.09765e-06
9.16894e-06
4.0954e-06
1.84286e-05
1.84391e-05
4.09758e-06
9.17088e-06
3.23656e-07
3.23748e-07
3.35653e-07
3.35651e-07
3.35726e-07
3.35755e-07
2.11403e-06
3.47712e-06
5.64076e-07
8.74752e-07
3.48047e-06
5.69926e-07
2.10954e-06
1.844e-05
2.1141e-06
5.6416e-07
8.74844e-07
5.70009e-07
3.4802e-06
2.10964e-06
5.46403e-06
5.46615e-06
1.15826e-06
5.46685e-06
5.46857e-06
4.10535e-06
9.17808e-06
4.10293e-06
9.18521e-06
1.84509e-05
1.84617e-05
4.10526e-06
9.18039e-06
4.10318e-06
9.1871e-06
3.39682e-07
3.39759e-07
3.39778e-07
3.51869e-07
3.51869e-07
3.51946e-07
3.51978e-07
2.12793e-06
3.48807e-06
5.87389e-07
8.97939e-07
2.12364e-06
3.4914e-06
5.93163e-07
1.84516e-05
1.84625e-05
2.128e-06
5.87471e-07
3.48856e-06
8.98029e-07
2.12375e-06
5.93245e-07
3.49117e-06
5.47334e-06
5.47529e-06
1.17738e-06
5.47615e-06
5.47811e-06
4.11304e-06
9.19474e-06
4.11075e-06
9.20157e-06
1.84741e-05
1.84853e-05
4.11315e-06
9.1968e-06
4.11077e-06
9.20364e-06
3.55953e-07
3.5603e-07
3.56052e-07
3.68273e-07
3.68274e-07
3.68354e-07
3.68388e-07
2.14123e-06
3.49903e-06
6.10372e-07
9.20155e-07
2.13714e-06
3.50172e-06
6.16047e-07
1.84747e-05
1.8486e-05
2.14125e-06
6.10462e-07
3.49889e-06
9.20248e-07
2.13722e-06
6.16137e-07
3.50217e-06
5.48257e-06
5.48459e-06
1.19559e-06
5.48541e-06
5.48714e-06
4.1207e-06
9.21149e-06
4.11823e-06
9.21844e-06
1.84981e-05
1.85097e-05
4.12089e-06
9.21353e-06
4.11834e-06
9.22047e-06
3.72391e-07
3.72472e-07
3.72494e-07
3.84788e-07
3.84793e-07
3.84877e-07
3.8491e-07
2.15399e-06
3.50943e-06
6.32945e-07
9.41405e-07
2.15007e-06
3.51188e-06
6.38498e-07
1.84988e-05
1.85104e-05
2.154e-06
6.33037e-07
3.50932e-06
9.41509e-07
2.15013e-06
6.38595e-07
3.51238e-06
5.49187e-06
5.49399e-06
1.213e-06
5.49453e-06
5.49658e-06
4.12842e-06
9.22853e-06
4.12606e-06
9.23559e-06
1.8523e-05
1.85348e-05
4.12856e-06
9.23052e-06
4.12601e-06
9.23772e-06
3.88924e-07
3.8901e-07
3.89029e-07
4.01345e-07
4.01353e-07
4.01444e-07
4.01474e-07
2.16624e-06
3.51961e-06
6.55032e-07
9.61712e-07
2.16247e-06
3.52224e-06
6.60446e-07
1.85236e-05
1.85355e-05
2.16629e-06
6.55134e-07
3.51946e-06
9.61825e-07
2.16256e-06
6.60552e-07
3.52241e-06
5.50127e-06
5.50323e-06
1.22961e-06
5.50367e-06
5.50545e-06
4.13618e-06
9.24582e-06
4.13378e-06
9.25295e-06
1.85486e-05
1.85607e-05
4.13626e-06
9.24756e-06
4.13381e-06
9.25512e-06
4.05482e-07
4.05575e-07
4.05589e-07
4.17876e-07
4.17892e-07
4.1799e-07
4.18016e-07
2.17806e-06
3.52927e-06
6.7657e-07
9.81121e-07
2.17443e-06
3.53214e-06
6.8183e-07
1.85491e-05
1.85612e-05
2.17813e-06
6.76683e-07
3.52938e-06
9.81247e-07
2.17454e-06
6.8195e-07
3.53226e-06
5.51049e-06
5.5126e-06
1.24563e-06
5.51295e-06
5.51488e-06
4.14377e-06
9.26327e-06
4.14172e-06
9.27047e-06
1.85747e-05
1.8587e-05
4.14414e-06
9.26511e-06
4.1414e-06
9.27238e-06
4.22001e-07
4.22101e-07
4.2211e-07
4.34323e-07
4.3435e-07
4.34455e-07
4.34474e-07
2.1895e-06
3.53901e-06
6.97509e-07
9.99672e-07
2.186e-06
3.54187e-06
7.02605e-07
1.85751e-05
1.85874e-05
2.18958e-06
6.97639e-07
3.5391e-06
9.99809e-07
2.18613e-06
7.02741e-07
3.54194e-06
5.51969e-06
5.52177e-06
1.26095e-06
5.52199e-06
5.52438e-06
4.15165e-06
9.2809e-06
4.14966e-06
9.28817e-06
1.8601e-05
1.86134e-05
4.15182e-06
9.28283e-06
4.1496e-06
9.29028e-06
4.38425e-07
4.38531e-07
4.3853e-07
4.50633e-07
4.50676e-07
4.50785e-07
4.50797e-07
2.20071e-06
3.54864e-06
7.17825e-07
1.01742e-06
2.19725e-06
3.55149e-06
7.22754e-07
1.86016e-05
1.86141e-05
2.20075e-06
7.17969e-07
3.54877e-06
1.01756e-06
2.19741e-06
7.22902e-07
3.55151e-06
5.52909e-06
5.53126e-06
1.27552e-06
5.5315e-06
5.53366e-06
4.15982e-06
9.29842e-06
4.15765e-06
9.30624e-06
1.86277e-05
1.86401e-05
4.16002e-06
9.30045e-06
4.15781e-06
9.30822e-06
4.54702e-07
4.54811e-07
4.548e-07
4.6676e-07
4.66825e-07
4.66933e-07
4.66937e-07
2.21166e-06
3.55836e-06
7.37516e-07
1.03442e-06
2.2083e-06
3.5611e-06
7.42276e-07
1.86283e-05
1.86409e-05
2.21173e-06
7.37669e-07
3.55833e-06
1.03455e-06
2.20843e-06
7.42434e-07
3.56113e-06
5.53853e-06
5.54071e-06
1.28963e-06
5.54116e-06
5.54331e-06
4.16821e-06
9.3164e-06
4.16613e-06
9.32403e-06
1.86542e-05
1.86664e-05
4.16838e-06
9.31854e-06
4.16612e-06
9.32584e-06
4.70787e-07
4.70895e-07
4.70875e-07
4.82664e-07
4.82755e-07
4.82857e-07
4.82851e-07
2.2224e-06
3.56786e-06
7.56575e-07
1.05074e-06
2.21918e-06
3.57072e-06
7.6117e-07
1.86551e-05
1.86675e-05
2.22247e-06
7.56731e-07
3.5678e-06
1.05084e-06
2.21924e-06
7.61327e-07
3.57058e-06
5.54784e-06
5.55014e-06
1.30326e-06
5.55074e-06
5.55244e-06
4.17665e-06
9.33427e-06
4.17459e-06
9.34139e-06
1.86802e-05
1.8692e-05
4.17708e-06
9.33597e-06
4.17428e-06
9.3435e-06
4.8664e-07
4.86739e-07
4.86709e-07
4.98302e-07
4.98423e-07
4.98511e-07
4.98493e-07
2.23297e-06
3.57749e-06
7.74989e-07
1.06642e-06
2.22987e-06
3.58001e-06
7.7942e-07
1.86814e-05
1.86934e-05
2.23292e-06
7.75142e-07
3.57747e-06
1.06648e-06
2.22987e-06
7.79574e-07
3.5797e-06
5.55738e-06
5.5597e-06
1.31642e-06
5.56028e-06
5.56196e-06
4.18509e-06
9.35129e-06
4.18298e-06
9.35807e-06
1.87051e-05
1.87163e-05
4.18547e-06
9.35333e-06
4.18256e-06
9.36011e-06
5.02212e-07
5.02297e-07
5.02254e-07
5.1362e-07
5.13771e-07
5.1384e-07
5.13807e-07
2.24322e-06
3.58693e-06
7.92733e-07
1.08148e-06
2.24021e-06
3.5892e-06
7.97002e-07
1.87068e-05
1.87183e-05
2.24313e-06
7.92874e-07
3.5867e-06
1.08148e-06
2.24019e-06
7.97136e-07
3.58931e-06
5.56682e-06
5.56885e-06
1.32914e-06
5.56955e-06
5.57158e-06
4.19318e-06
9.36752e-06
4.19101e-06
9.37385e-06
1.87286e-05
1.87392e-05
4.19347e-06
9.36959e-06
4.19089e-06
9.37595e-06
5.17442e-07
5.17508e-07
5.17451e-07
5.28544e-07
5.2872e-07
5.28768e-07
5.28719e-07
2.25304e-06
3.596e-06
8.0977e-07
1.09589e-06
2.25023e-06
3.59816e-06
8.13871e-07
1.87308e-05
1.87416e-05
2.2529e-06
8.09876e-07
3.59561e-06
1.09584e-06
2.25009e-06
8.13967e-07
3.59819e-06
5.57605e-06
5.57782e-06
1.34123e-06
5.57847e-06
5.58048e-06
4.20103e-06
9.38245e-06
4.19876e-06
9.38866e-06
1.87505e-05
1.87604e-05
4.20122e-06
9.38452e-06
4.19876e-06
9.39085e-06
5.32246e-07
5.32293e-07
5.32218e-07
5.42977e-07
5.43166e-07
5.432e-07
5.43128e-07
2.26235e-06
3.60459e-06
8.26027e-07
1.1096e-06
2.25976e-06
3.6066e-06
8.29954e-07
1.8753e-05
1.87629e-05
2.26212e-06
8.26083e-07
3.60428e-06
1.10951e-06
2.25952e-06
8.29998e-07
3.60668e-06
5.58475e-06
5.58645e-06
1.3528e-06
5.58705e-06
5.58889e-06
4.20816e-06
9.3964e-06
4.20625e-06
9.40207e-06
1.87708e-05
1.878e-05
4.20838e-06
9.39883e-06
4.20639e-06
9.40422e-06
5.46518e-07
5.46553e-07
5.46453e-07
5.56804e-07
5.56992e-07
5.57025e-07
5.56919e-07
2.27099e-06
3.61264e-06
8.41407e-07
1.12251e-06
2.26863e-06
3.6145e-06
8.45144e-07
1.87732e-05
1.87824e-05
2.27071e-06
8.41413e-07
3.61249e-06
1.1224e-06
2.26842e-06
8.45139e-07
3.61462e-06
5.59293e-06
5.5946e-06
1.36367e-06
5.59502e-06
5.59681e-06
4.21501e-06
9.40928e-06
4.21321e-06
9.41422e-06
1.87895e-05
1.87982e-05
4.21489e-06
9.41163e-06
4.2134e-06
9.41655e-06
5.60137e-07
5.60177e-07
5.6004e-07
5.69897e-07
5.70064e-07
5.70121e-07
5.69966e-07
2.27887e-06
3.62006e-06
8.5579e-07
1.13449e-06
2.27679e-06
3.62179e-06
8.59322e-07
1.87916e-05
1.88001e-05
2.27862e-06
8.55762e-07
3.62007e-06
1.1344e-06
2.27655e-06
8.59287e-07
3.62195e-06
5.60045e-06
5.60216e-06
1.37381e-06
5.60233e-06
5.60413e-06
4.22094e-06
9.42067e-06
4.2194e-06
9.42533e-06
1.88069e-05
1.88151e-05
4.22114e-06
9.42323e-06
4.21953e-06
9.42767e-06
5.72972e-07
5.73043e-07
5.72854e-07
5.82129e-07
5.82257e-07
5.82364e-07
5.82149e-07
2.2858e-06
3.62678e-06
8.69058e-07
1.14543e-06
2.284e-06
3.62833e-06
8.7236e-07
1.88082e-05
1.88161e-05
2.28554e-06
8.69025e-07
3.62685e-06
1.14541e-06
2.28373e-06
8.72326e-07
3.62846e-06
5.60726e-06
5.60906e-06
1.38304e-06
5.60893e-06
5.61082e-06
4.22621e-06
9.43124e-06
4.22486e-06
9.43555e-06
1.88231e-05
1.88309e-05
4.22628e-06
9.43371e-06
4.22496e-06
9.43784e-06
5.84907e-07
5.85031e-07
5.84781e-07
5.9339e-07
5.93472e-07
5.93643e-07
5.9337e-07
2.29181e-06
3.63281e-06
8.81093e-07
1.15525e-06
2.29023e-06
3.63415e-06
8.84147e-07
1.88235e-05
1.88311e-05
2.29156e-06
8.81079e-07
3.63286e-06
1.1553e-06
2.2901e-06
8.84134e-07
3.63425e-06
5.61346e-06
5.61535e-06
1.39135e-06
5.61499e-06
5.61691e-06
4.23088e-06
9.441e-06
4.22976e-06
9.445e-06
1.88384e-05
1.88459e-05
4.23081e-06
9.44333e-06
4.22968e-06
9.44708e-06
5.95853e-07
5.96042e-07
5.95736e-07
6.0361e-07
6.03649e-07
6.03887e-07
6.03567e-07
2.29695e-06
3.63812e-06
8.91817e-07
1.1639e-06
2.29557e-06
3.63924e-06
8.94608e-07
1.8838e-05
1.88455e-05
2.29678e-06
8.91841e-07
3.63813e-06
1.16403e-06
2.2954e-06
8.94639e-07
3.63929e-06
5.61915e-06
5.62107e-06
1.39873e-06
5.62053e-06
5.62247e-06
4.23485e-06
9.45029e-06
4.23398e-06
9.45387e-06
1.8853e-05
1.88602e-05
4.23475e-06
9.45221e-06
4.23374e-06
9.4558e-06
6.05759e-07
6.06013e-07
6.05667e-07
6.12751e-07
6.12768e-07
6.1306e-07
6.1272e-07
2.30126e-06
3.64274e-06
9.01212e-07
1.17141e-06
2.30025e-06
3.64365e-06
9.03739e-07
1.88522e-05
1.88595e-05
2.30105e-06
9.01291e-07
3.6427e-06
1.17158e-06
2.3001e-06
9.03825e-07
3.64363e-06
5.62434e-06
5.62619e-06
1.40522e-06
5.6255e-06
5.62731e-06
4.23811e-06
9.45893e-06
4.23747e-06
9.4623e-06
1.88669e-05
1.88739e-05
4.23806e-06
9.4608e-06
4.23731e-06
9.4642e-06
6.14614e-07
6.14917e-07
6.1456e-07
6.20814e-07
6.20828e-07
6.21154e-07
6.20822e-07
2.30485e-06
3.6467e-06
9.09331e-07
1.17781e-06
2.3041e-06
3.64738e-06
9.11602e-07
1.8866e-05
1.88732e-05
2.30454e-06
9.09439e-07
3.6466e-06
1.17801e-06
2.30384e-06
9.11706e-07
3.64734e-06
5.62896e-06
5.63063e-06
1.41084e-06
5.62995e-06
5.63154e-06
4.24078e-06
9.46711e-06
4.2403e-06
9.4706e-06
1.88801e-05
1.88869e-05
4.24095e-06
9.46908e-06
4.24032e-06
9.4724e-06
6.22426e-07
6.22758e-07
6.22415e-07
6.27847e-07
6.27859e-07
6.28201e-07
6.27894e-07
2.30776e-06
3.64999e-06
9.16269e-07
1.18315e-06
2.30718e-06
3.65048e-06
9.18285e-07
1.88795e-05
1.88865e-05
2.30722e-06
9.16355e-07
3.64995e-06
1.18336e-06
2.30675e-06
9.18358e-07
3.65053e-06
5.63302e-06
5.63446e-06
1.41551e-06
5.63383e-06
5.63522e-06
4.24302e-06
9.47449e-06
4.24267e-06
9.47768e-06
1.88929e-05
1.88996e-05
4.24342e-06
9.47671e-06
4.24291e-06
9.47981e-06
6.29231e-07
6.29572e-07
6.29259e-07
6.33907e-07
6.33922e-07
6.34251e-07
6.33974e-07
2.31029e-06
3.65268e-06
9.22117e-07
1.18751e-06
2.30978e-06
3.65303e-06
9.23893e-07
1.88925e-05
1.88993e-05
2.30914e-06
9.22119e-07
3.65259e-06
1.1877e-06
2.30888e-06
9.23862e-07
3.65289e-06
5.6366e-06
5.63785e-06
1.41935e-06
5.63723e-06
5.6385e-06
4.24504e-06
9.48186e-06
4.24473e-06
9.48479e-06
1.89053e-05
1.89117e-05
4.24561e-06
9.48401e-06
4.24519e-06
9.48669e-06
6.35096e-07
6.35418e-07
6.35134e-07
6.3908e-07
6.39099e-07
6.39392e-07
6.39122e-07
2.31199e-06
3.65501e-06
9.27009e-07
1.19103e-06
2.31177e-06
3.65523e-06
9.28553e-07
1.89051e-05
1.89119e-05
2.31068e-06
9.2688e-07
3.65471e-06
1.19117e-06
2.31051e-06
9.28398e-07
3.65493e-06
5.63966e-06
5.64105e-06
1.42243e-06
5.64013e-06
5.64163e-06
4.24694e-06
9.48874e-06
4.24668e-06
9.49138e-06
1.89169e-05
1.8923e-05
4.24753e-06
9.49054e-06
4.2472e-06
9.49303e-06
6.40112e-07
6.40398e-07
6.40118e-07
6.43454e-07
6.43487e-07
6.43746e-07
6.43447e-07
2.31342e-06
3.65684e-06
9.31038e-07
1.19382e-06
2.31322e-06
3.65689e-06
9.32358e-07
1.89175e-05
1.8924e-05
2.31205e-06
9.30828e-07
3.65663e-06
1.19392e-06
2.31192e-06
9.3213e-07
3.6568e-06
5.6424e-06
5.64405e-06
1.42487e-06
5.64276e-06
5.64454e-06
4.24874e-06
9.49504e-06
4.24851e-06
9.4976e-06
1.89275e-05
1.89333e-05
4.24905e-06
9.4964e-06
4.24889e-06
9.49879e-06
6.4437e-07
6.44625e-07
6.44309e-07
6.47117e-07
6.47186e-07
6.47414e-07
6.47052e-07
2.31438e-06
3.65846e-06
9.34322e-07
1.19605e-06
2.31434e-06
3.65847e-06
9.35437e-07
1.89287e-05
1.89345e-05
2.31341e-06
9.3408e-07
3.65833e-06
1.19612e-06
2.31318e-06
9.35194e-07
3.65826e-06
5.64462e-06
5.64677e-06
1.42666e-06
5.64446e-06
5.64705e-06
4.25042e-06
9.50006e-06
4.25022e-06
9.50239e-06
1.89374e-05
1.89429e-05
4.25032e-06
9.50192e-06
4.25027e-06
9.50401e-06
6.4796e-07
6.48184e-07
6.47805e-07
6.50185e-07
6.50288e-07
6.50483e-07
6.50055e-07
2.31531e-06
3.65969e-06
9.36987e-07
1.1979e-06
2.31522e-06
3.65935e-06
9.37937e-07
1.89379e-05
1.89428e-05
2.31452e-06
9.36775e-07
3.65931e-06
1.19788e-06
2.3143e-06
9.37739e-07
3.65916e-06
5.64559e-06
5.64876e-06
1.4281e-06
5.64554e-06
5.64859e-06
4.25202e-06
9.50544e-06
4.25192e-06
9.50777e-06
1.89464e-05
1.89511e-05
4.25098e-06
9.50684e-06
4.2511e-06
9.5091e-06
6.50974e-07
6.51168e-07
6.50728e-07
6.52757e-07
6.5286e-07
6.53059e-07
6.52584e-07
2.31611e-06
3.66054e-06
9.39176e-07
1.19947e-06
2.31607e-06
3.66044e-06
9.40004e-07
1.89453e-05
1.89503e-05
2.3152e-06
9.39028e-07
3.66061e-06
1.19942e-06
2.31539e-06
9.39879e-07
3.66057e-06
5.64738e-06
5.64969e-06
1.42955e-06
5.64768e-06
5.64939e-06
4.25228e-06
9.51011e-06
4.25275e-06
9.51129e-06
1.89529e-05
1.89568e-05
4.25205e-06
9.51076e-06
4.252e-06
9.51268e-06
6.53479e-07
6.53677e-07
6.53192e-07
6.5486e-07
6.5498e-07
6.55198e-07
6.54709e-07
2.31654e-06
3.66192e-06
9.41012e-07
1.20081e-06
2.31667e-06
3.66192e-06
9.41743e-07
1.8953e-05
1.89577e-05
2.31564e-06
9.40957e-07
3.66154e-06
1.2008e-06
2.3157e-06
9.41724e-07
3.66117e-06
5.64975e-06
5.65094e-06
1.43073e-06
5.64969e-06
5.65094e-06
4.25294e-06
9.51291e-06
4.25291e-06
9.514e-06
1.8958e-05
1.89619e-05
4.25345e-06
9.5139e-06
4.25326e-06
9.51584e-06
6.55549e-07
6.55774e-07
6.55266e-07