/*--------------------------------*- C++ -*----------------------------------*\
| =========                 |                                                 |
| \\      /  F ield         | OpenFOAM: The Open Source CFD Toolbox           |
|  \\    /   O peration     | Version:  v2012                                 |
|   \\  /    A nd           | Website:  www.openfoam.com                      |
|    \\/     M anipulation  |                                                 |
\*---------------------------------------------------------------------------*/
FoamFile
{
    version     2.0;
    format      ascii;
    class       volScalarField;
    location    "300";
    object      k;
}
// * * * * * * * * * * * * * * * * * * * * * * * * * * * * * * * * * * * * * //

dimensions      [0 2 -2 0 0 0 0];


internalField   nonuniform List<scalar> 
85864
(
2.10381e-05
3.66881e-05
4.19363e-05
3.66895e-05
3.66881e-05
3.66895e-05
4.19381e-05
7.13588e-05
7.13651e-05
6.4731e-05
2.10389e-05
6.95318e-05
6.02121e-05
6.95315e-05
6.95341e-05
6.69222e-05
6.69319e-05
6.02116e-05
6.02169e-05
2.90755e-05
5.3334e-05
7.13588e-05
6.4728e-05
2.90754e-05
6.02133e-05
5.33317e-05
6.69255e-05
6.6922e-05
6.95317e-05
7.13586e-05
7.13721e-05
7.73958e-05
7.01936e-05
7.02106e-05
7.13786e-05
7.74172e-05
7.74357e-05
7.01965e-05
7.01527e-05
6.47684e-05
6.82255e-05
6.98501e-05
6.82568e-05
6.9859e-05
7.0143e-05
6.95444e-05
6.9544e-05
6.95466e-05
7.01206e-05
5.93684e-05
6.69376e-05
7.11413e-05
7.11594e-05
5.94202e-05
7.00994e-05
7.01711e-05
5.93785e-05
6.69482e-05
7.11532e-05
7.11682e-05
5.94296e-05
7.0149e-05
9.23839e-05
7.20335e-05
7.2027e-05
7.20474e-05
7.20409e-05
9.23754e-05
7.02072e-05
7.13725e-05
7.73941e-05
7.74129e-05
7.01925e-05
7.01498e-05
6.47656e-05
6.9849e-05
6.82168e-05
6.98579e-05
6.82478e-05
7.01397e-05
7.01699e-05
5.93768e-05
6.69396e-05
7.11511e-05
7.11661e-05
5.94242e-05
7.01488e-05
7.01207e-05
5.93694e-05
6.69374e-05
7.11409e-05
5.94205e-05
7.1159e-05
7.00996e-05
9.23862e-05
7.20269e-05
7.20332e-05
7.2041e-05
7.20472e-05
9.23776e-05
6.95442e-05
7.13745e-05
1.50359e-05
5.96558e-05
5.06071e-05
5.06105e-05
4.19641e-05
5.06502e-05
5.0657e-05
5.96219e-05
5.96548e-05
5.06069e-05
5.06064e-05
4.19586e-05
5.06541e-05
5.06531e-05
5.96203e-05
1.50376e-05
4.8232e-05
5.26079e-05
6.02596e-05
5.85441e-05
5.26477e-05
5.86023e-05
4.81948e-05
4.82239e-05
5.26073e-05
6.02578e-05
5.85438e-05
5.86016e-05
5.26456e-05
4.81988e-05
4.82387e-05
5.26103e-05
6.02635e-05
5.85526e-05
5.86106e-05
5.26519e-05
4.82008e-05
4.58825e-05
5.34116e-05
5.56407e-05
4.39244e-05
5.57097e-05
4.39717e-05
4.58772e-05
4.82189e-05
5.2611e-05
6.0255e-05
5.85422e-05
5.85999e-05
5.2643e-05
4.82055e-05
4.587e-05
5.34091e-05
4.39228e-05
5.56354e-05
4.39701e-05
5.57029e-05
4.58678e-05
3.66873e-05
4.19406e-05
2.17961e-05
3.75924e-05
3.75933e-05
4.26617e-05
2.25722e-05
3.8472e-05
3.84733e-05
4.33593e-05
2.33627e-05
3.93255e-05
3.9327e-05
4.40321e-05
2.41639e-05
4.01527e-05
4.01545e-05
4.46885e-05
2.49723e-05
4.09538e-05
4.09559e-05
4.53314e-05
2.57845e-05
4.17291e-05
4.17317e-05
4.5952e-05
2.65974e-05
4.24798e-05
4.24826e-05
4.65384e-05
2.74083e-05
4.32067e-05
4.32091e-05
4.71074e-05
2.82146e-05
4.39108e-05
4.39127e-05
4.7662e-05
2.90138e-05
4.45929e-05
4.4594e-05
4.82034e-05
2.98034e-05
4.5253e-05
4.5253e-05
4.8726e-05
3.05802e-05
4.58895e-05
4.58882e-05
4.92385e-05
3.13403e-05
4.64998e-05
4.64976e-05
4.97087e-05
3.20788e-05
4.70804e-05
4.70779e-05
5.01582e-05
3.27901e-05
4.76275e-05
4.76255e-05
5.05811e-05
3.34685e-05
4.81368e-05
4.81363e-05
5.09748e-05
3.41081e-05
4.86053e-05
4.86069e-05
5.13271e-05
3.4704e-05
4.90311e-05
4.90345e-05
5.16544e-05
3.52528e-05
4.94143e-05
4.94193e-05
5.19498e-05
3.57526e-05
4.97567e-05
4.97632e-05
5.22338e-05
3.62024e-05
5.00574e-05
5.00646e-05
5.24724e-05
3.66028e-05
5.03177e-05
5.03249e-05
5.26806e-05
3.69557e-05
5.05406e-05
5.05464e-05
5.28553e-05
3.72631e-05
5.0729e-05
5.07337e-05
5.30021e-05
3.75275e-05
5.08867e-05
5.08907e-05
5.31272e-05
3.77512e-05
5.10196e-05
5.10215e-05
5.32306e-05
3.79377e-05
5.11307e-05
5.11299e-05
5.33132e-05
3.80889e-05
5.12203e-05
5.12215e-05
5.33817e-05
3.82043e-05
5.12909e-05
5.12938e-05
5.34367e-05
3.82874e-05
5.13425e-05
5.13469e-05
5.34759e-05
3.83444e-05
5.13751e-05
5.1382e-05
5.3498e-05
3.83766e-05
5.1391e-05
5.13999e-05
5.35181e-05
3.83983e-05
5.13967e-05
5.1406e-05
5.3527e-05
3.84081e-05
5.13986e-05
5.14077e-05
5.35348e-05
3.84102e-05
5.13981e-05
5.14082e-05
5.35457e-05
3.84113e-05
5.13981e-05
5.14079e-05
5.35458e-05
3.84119e-05
5.1398e-05
5.14075e-05
5.35443e-05
3.84116e-05
5.13981e-05
5.14092e-05
5.35457e-05
3.84112e-05
5.13999e-05
5.14115e-05
5.3547e-05
3.84117e-05
5.14015e-05
5.14134e-05
5.35507e-05
3.84129e-05
5.14034e-05
5.14159e-05
5.35557e-05
3.84147e-05
5.14064e-05
5.14188e-05
5.356e-05
3.84173e-05
5.14113e-05
5.14226e-05
5.35677e-05
3.8421e-05
5.14171e-05
5.14267e-05
5.35589e-05
3.84247e-05
5.14233e-05
5.14311e-05
5.35511e-05
3.84161e-05
5.14102e-05
5.14155e-05
5.35241e-05
3.79219e-05
5.01421e-05
5.01437e-05
5.3158e-05
4.25084e-05
3.66896e-05
3.73692e-05
3.73702e-05
4.19539e-05
4.24907e-05
3.73678e-05
3.73699e-05
3.6694e-05
3.73676e-05
3.73744e-05
4.25079e-05
3.66917e-05
3.73683e-05
3.73724e-05
4.25124e-05
4.26569e-05
4.32046e-05
3.75943e-05
3.75947e-05
3.82548e-05
3.82562e-05
4.2662e-05
4.31978e-05
3.75931e-05
3.75944e-05
3.82535e-05
3.82558e-05
3.75988e-05
3.82536e-05
3.82601e-05
4.26625e-05
4.32146e-05
3.75969e-05
3.82546e-05
3.82584e-05
4.32086e-05
4.33547e-05
4.38879e-05
3.84735e-05
3.84741e-05
3.91144e-05
3.91161e-05
4.33622e-05
4.3876e-05
3.84724e-05
3.84738e-05
3.91132e-05
3.91156e-05
3.8478e-05
3.91135e-05
3.91195e-05
4.33566e-05
4.38921e-05
3.84764e-05
3.9115e-05
3.91182e-05
4.38914e-05
4.40258e-05
4.45455e-05
3.93265e-05
3.93274e-05
3.99474e-05
3.99494e-05
4.40393e-05
4.45324e-05
3.93256e-05
3.93271e-05
3.99463e-05
3.99492e-05
3.93309e-05
3.99471e-05
3.99526e-05
4.40303e-05
4.45398e-05
3.93297e-05
3.99489e-05
3.99519e-05
4.45504e-05
4.46832e-05
4.51817e-05
4.01531e-05
4.01543e-05
4.07543e-05
4.07567e-05
4.4703e-05
4.51665e-05
4.01522e-05
4.01541e-05
4.07533e-05
4.07565e-05
4.01574e-05
4.07547e-05
4.07595e-05
4.46983e-05
4.5177e-05
4.01568e-05
4.07568e-05
4.07593e-05
4.51785e-05
4.53129e-05
4.57904e-05
4.09535e-05
4.09552e-05
4.15351e-05
4.1538e-05
4.53409e-05
4.57929e-05
4.09527e-05
4.0955e-05
4.15341e-05
4.15379e-05
4.09579e-05
4.15362e-05
4.15407e-05
4.53263e-05
4.58102e-05
4.09578e-05
4.15388e-05
4.15408e-05
4.57965e-05
4.59377e-05
4.6388e-05
4.17279e-05
4.17302e-05
4.22907e-05
4.22942e-05
4.59384e-05
4.63888e-05
4.17271e-05
4.173e-05
4.22897e-05
4.22941e-05
4.17328e-05
4.22928e-05
4.22963e-05
4.59346e-05
4.6405e-05
4.1733e-05
4.22957e-05
4.22969e-05
4.63854e-05
4.65398e-05
4.69593e-05
4.24775e-05
4.24803e-05
4.30217e-05
4.30262e-05
4.65459e-05
4.69739e-05
4.24767e-05
4.24801e-05
4.30208e-05
4.30258e-05
4.24823e-05
4.30254e-05
4.30275e-05
4.65301e-05
4.6972e-05
4.2483e-05
4.3028e-05
4.30289e-05
4.69886e-05
4.71159e-05
4.75302e-05
4.32027e-05
4.32064e-05
4.37296e-05
4.37351e-05
4.71147e-05
4.75371e-05
4.3202e-05
4.32058e-05
4.37287e-05
4.37342e-05
4.32076e-05
4.3735e-05
4.37355e-05
4.71152e-05
4.75532e-05
4.32092e-05
4.3737e-05
4.37377e-05
4.75444e-05
4.76618e-05
4.80882e-05
4.39051e-05
4.39097e-05
4.44155e-05
4.44219e-05
4.76799e-05
4.80817e-05
4.39044e-05
4.39086e-05
4.44146e-05
4.44201e-05
4.39098e-05
4.44221e-05
4.44211e-05
4.76715e-05
4.80836e-05
4.39122e-05
4.44235e-05
4.44239e-05
4.8093e-05
4.82017e-05
4.8614e-05
4.45856e-05
4.45912e-05
4.50794e-05
4.50871e-05
4.82192e-05
4.86128e-05
4.45848e-05
4.45891e-05
4.50784e-05
4.5084e-05
4.45899e-05
4.50875e-05
4.50846e-05
4.82174e-05
4.86095e-05
4.45927e-05
4.50878e-05
4.50872e-05
4.86149e-05
4.87231e-05
4.91122e-05
4.52441e-05
4.52508e-05
4.57204e-05
4.57288e-05
4.87424e-05
4.91271e-05
4.52431e-05
4.52475e-05
4.5719e-05
4.57248e-05
4.52479e-05
4.57298e-05
4.57254e-05
4.87408e-05
4.91182e-05
4.52504e-05
4.57289e-05
4.57274e-05
4.91113e-05
4.92377e-05
4.95986e-05
4.58791e-05
4.58864e-05
4.63363e-05
4.63449e-05
4.92431e-05
4.96154e-05
4.58778e-05
4.5882e-05
4.63346e-05
4.63401e-05
4.58828e-05
4.63465e-05
4.63408e-05
4.92409e-05
4.96082e-05
4.58847e-05
4.63446e-05
4.63421e-05
4.96076e-05
4.97158e-05
5.00637e-05
4.64883e-05
4.64956e-05
4.69239e-05
4.69319e-05
4.9714e-05
5.00719e-05
4.64867e-05
4.64905e-05
4.6922e-05
4.69268e-05
4.64913e-05
4.69344e-05
4.69274e-05
4.97206e-05
5.00574e-05
4.64923e-05
4.6932e-05
4.69276e-05
5.00604e-05
5.01617e-05
5.0493e-05
4.70682e-05
4.70747e-05
4.74792e-05
4.74863e-05
5.01665e-05
5.04931e-05
4.70664e-05
4.70698e-05
4.74775e-05
4.7482e-05
4.70701e-05
4.74899e-05
4.74817e-05
5.01758e-05
5.04938e-05
4.70699e-05
4.74877e-05
4.74804e-05
5.04873e-05
5.05821e-05
5.08895e-05
4.76147e-05
4.76201e-05
4.79985e-05
4.80035e-05
5.05922e-05
5.08947e-05
4.76134e-05
4.76162e-05
4.79975e-05
4.80015e-05
4.76155e-05
4.80084e-05
4.79997e-05
5.05952e-05
5.08907e-05
4.7614e-05
4.80076e-05
4.79973e-05
5.08806e-05
5.09767e-05
5.12524e-05
4.81243e-05
4.81275e-05
4.84777e-05
4.84807e-05
5.098e-05
5.12564e-05
4.81237e-05
4.81262e-05
4.84778e-05
4.84815e-05
4.81238e-05
4.8487e-05
4.84777e-05
5.0982e-05
5.12576e-05
4.81214e-05
4.84881e-05
4.84752e-05
5.12444e-05
5.1327e-05
5.15834e-05
4.85928e-05
4.8594e-05
4.89145e-05
4.89155e-05
5.13354e-05
5.15871e-05
4.85934e-05
4.85955e-05
4.89159e-05
4.89191e-05
4.85911e-05
4.89235e-05
4.89138e-05
5.13398e-05
5.15907e-05
4.85888e-05
4.89264e-05
4.8912e-05
5.15796e-05
5.16574e-05
5.18833e-05
4.90186e-05
4.90178e-05
4.93082e-05
4.93076e-05
5.166e-05
5.18862e-05
4.90206e-05
4.90219e-05
4.93108e-05
4.93129e-05
4.90164e-05
4.93168e-05
4.93068e-05
5.16673e-05
5.18908e-05
4.90149e-05
4.93215e-05
4.93057e-05
5.18726e-05
5.1952e-05
5.21709e-05
4.94014e-05
4.93992e-05
4.96603e-05
4.96588e-05
5.19559e-05
5.21741e-05
4.94042e-05
4.94049e-05
4.96635e-05
4.96653e-05
4.93985e-05
4.96693e-05
4.96592e-05
5.19597e-05
5.21786e-05
4.93977e-05
4.96756e-05
4.96585e-05
5.21667e-05
5.22388e-05
5.24184e-05
4.97429e-05
4.97399e-05
4.99708e-05
4.99687e-05
5.22414e-05
5.2422e-05
4.97462e-05
4.97466e-05
4.99743e-05
4.99755e-05
4.97408e-05
4.99802e-05
4.99704e-05
5.22458e-05
5.24259e-05
4.974e-05
4.99873e-05
4.99688e-05
5.24129e-05
5.24785e-05
5.26325e-05
5.00428e-05
5.00394e-05
5.02411e-05
5.02378e-05
5.24814e-05
5.26329e-05
5.00467e-05
5.00462e-05
5.02457e-05
5.02446e-05
5.00415e-05
5.02505e-05
5.02415e-05
5.2486e-05
5.26383e-05
5.00394e-05
5.02579e-05
5.02378e-05
5.26271e-05
5.26862e-05
5.28135e-05
5.03032e-05
5.02984e-05
5.04739e-05
5.04685e-05
5.2686e-05
5.2811e-05
5.03085e-05
5.03053e-05
5.04799e-05
5.04751e-05
5.03024e-05
5.04824e-05
5.0473e-05
5.26909e-05
5.28172e-05
5.02986e-05
5.04887e-05
5.04694e-05
5.28088e-05
5.28599e-05
5.29661e-05
5.05269e-05
5.05202e-05
5.06727e-05
5.06667e-05
5.28583e-05
5.29614e-05
5.05332e-05
5.05266e-05
5.06793e-05
5.06727e-05
5.05245e-05
5.06792e-05
5.06689e-05
5.28637e-05
5.29667e-05
5.05213e-05
5.06841e-05
5.06662e-05
5.29604e-05
5.30081e-05
5.30964e-05
5.07176e-05
5.0711e-05
5.08421e-05
5.08352e-05
5.3003e-05
5.30875e-05
5.07244e-05
5.07166e-05
5.08478e-05
5.08411e-05
5.07122e-05
5.08441e-05
5.08346e-05
5.30097e-05
5.30917e-05
5.07097e-05
5.08482e-05
5.08318e-05
5.30895e-05
5.31359e-05
5.32083e-05
5.08804e-05
5.08723e-05
5.09842e-05
5.09764e-05
5.31261e-05
5.31959e-05
5.08855e-05
5.08783e-05
5.09879e-05
5.0982e-05
5.08711e-05
5.09827e-05
5.09717e-05
5.31318e-05
5.31977e-05
5.08683e-05
5.09853e-05
5.09694e-05
5.31971e-05
5.3243e-05
5.33e-05
5.10154e-05
5.1007e-05
5.11003e-05
5.10945e-05
5.32314e-05
5.3292e-05
5.10192e-05
5.10125e-05
5.11032e-05
5.10971e-05
5.10009e-05
5.10988e-05
5.10815e-05
5.32348e-05
5.32923e-05
5.09991e-05
5.10984e-05
5.10814e-05
5.32834e-05
5.33312e-05
5.33649e-05
5.11262e-05
5.11204e-05
5.11969e-05
5.11917e-05
5.33242e-05
5.33641e-05
5.11292e-05
5.1122e-05
5.11995e-05
5.11906e-05
5.11057e-05
5.11937e-05
5.11746e-05
5.33241e-05
5.33657e-05
5.11058e-05
5.11944e-05
5.11735e-05
5.33496e-05
5.33995e-05
5.34219e-05
5.12186e-05
5.12125e-05
5.12749e-05
5.1267e-05
5.33975e-05
5.34147e-05
5.12211e-05
5.12117e-05
5.12758e-05
5.12684e-05
5.11957e-05
5.12697e-05
5.12513e-05
5.33944e-05
5.3426e-05
5.1194e-05
5.12721e-05
5.12491e-05
5.34115e-05
5.34554e-05
5.34733e-05
5.12909e-05
5.12821e-05
5.13315e-05
5.13212e-05
5.34468e-05
5.34523e-05
5.12916e-05
5.12849e-05
5.13329e-05
5.13256e-05
5.12667e-05
5.13274e-05
5.13046e-05
5.34523e-05
5.34687e-05
5.12655e-05
5.1331e-05
5.1307e-05
5.34452e-05
5.3498e-05
5.35052e-05
5.13414e-05
5.13312e-05
5.13695e-05
5.13603e-05
5.34842e-05
5.34926e-05
5.13434e-05
5.13352e-05
5.13728e-05
5.13626e-05
5.13138e-05
5.13655e-05
5.13422e-05
5.34896e-05
5.34938e-05
5.13169e-05
5.13719e-05
5.13461e-05
5.34714e-05
5.35241e-05
5.3521e-05
5.13758e-05
5.13674e-05
5.13956e-05
5.13865e-05
5.35144e-05
5.35106e-05
5.13802e-05
5.13687e-05
5.14008e-05
5.13859e-05
5.13505e-05
5.13861e-05
5.13735e-05
5.35089e-05
5.34954e-05
5.1354e-05
5.13941e-05
5.13764e-05
5.35006e-05
5.3537e-05
5.3534e-05
5.13983e-05
5.13891e-05
5.14109e-05
5.13993e-05
5.35259e-05
5.35135e-05
5.14037e-05
5.13871e-05
5.14162e-05
5.13961e-05
5.13773e-05
5.13944e-05
5.13915e-05
5.3517e-05
5.35059e-05
5.13812e-05
5.14039e-05
5.13963e-05
5.35116e-05
5.35497e-05
5.35391e-05
5.1412e-05
5.13992e-05
5.14177e-05
5.14018e-05
5.35299e-05
5.35122e-05
5.14172e-05
5.13976e-05
5.14232e-05
5.14013e-05
5.13928e-05
5.13981e-05
5.13995e-05
5.35212e-05
5.35125e-05
5.13974e-05
5.1407e-05
5.14042e-05
5.35187e-05
5.35535e-05
5.3532e-05
5.14179e-05
5.14022e-05
5.14189e-05
5.14013e-05
5.35188e-05
5.34999e-05
5.14239e-05
5.14027e-05
5.14244e-05
5.14049e-05
5.13998e-05
5.13977e-05
5.14017e-05
5.35297e-05
5.35186e-05
5.14051e-05
5.14077e-05
5.14068e-05
5.35192e-05
5.35458e-05
5.353e-05
5.14192e-05
5.14015e-05
5.14179e-05
5.14007e-05
5.35195e-05
5.35012e-05
5.14246e-05
5.14056e-05
5.14229e-05
5.14054e-05
5.14025e-05
5.13974e-05
5.14026e-05
5.35336e-05
5.35235e-05
5.14074e-05
5.14073e-05
5.14067e-05
5.35211e-05
5.35454e-05
5.3534e-05
5.14182e-05
5.14011e-05
5.14169e-05
5.14004e-05
5.35261e-05
5.35111e-05
5.14231e-05
5.14059e-05
5.14209e-05
5.14045e-05
5.14033e-05
5.13972e-05
5.14031e-05
5.3539e-05
5.35276e-05
5.14072e-05
5.14067e-05
5.14067e-05
5.35297e-05
5.355e-05
5.35371e-05
5.14173e-05
5.1401e-05
5.14155e-05
5.14e-05
5.35348e-05
5.35145e-05
5.14209e-05
5.14047e-05
5.14184e-05
5.14031e-05
5.14038e-05
5.1397e-05
5.1403e-05
5.35415e-05
5.35268e-05
5.14074e-05
5.14074e-05
5.14067e-05
5.35291e-05
5.35529e-05
5.35307e-05
5.14158e-05
5.14009e-05
5.14131e-05
5.13998e-05
5.35416e-05
5.35237e-05
5.14189e-05
5.14043e-05
5.14167e-05
5.14046e-05
5.14039e-05
5.13979e-05
5.14017e-05
5.3541e-05
5.35299e-05
5.14077e-05
5.14096e-05
5.14067e-05
5.35233e-05
5.35457e-05
5.35328e-05
5.1414e-05
5.14012e-05
5.14121e-05
5.14005e-05
5.35443e-05
5.35256e-05
5.14178e-05
5.14064e-05
5.14152e-05
5.14064e-05
5.14024e-05
5.13993e-05
5.13997e-05
5.35483e-05
5.35262e-05
5.14079e-05
5.14111e-05
5.1406e-05
5.35257e-05
5.35483e-05
5.3519e-05
5.14138e-05
5.14026e-05
5.14118e-05
5.14021e-05
5.35485e-05
5.35269e-05
5.14167e-05
5.14087e-05
5.14138e-05
5.14085e-05
5.14012e-05
5.14005e-05
5.13994e-05
5.35541e-05
5.35405e-05
5.14077e-05
5.14128e-05
5.14057e-05
5.3531e-05
5.35355e-05
5.35213e-05
5.14139e-05
5.1405e-05
5.14109e-05
5.1404e-05
5.35537e-05
5.35361e-05
5.1416e-05
5.14116e-05
5.14141e-05
5.14119e-05
5.14019e-05
5.14024e-05
5.14009e-05
5.3558e-05
5.35478e-05
5.14083e-05
5.14149e-05
5.14074e-05
5.35377e-05
5.35423e-05
5.35392e-05
5.14142e-05
5.14076e-05
5.14121e-05
5.14065e-05
5.3552e-05
5.35425e-05
5.14179e-05
5.14162e-05
5.14179e-05
5.14168e-05
5.14048e-05
5.14059e-05
5.1404e-05
5.35645e-05
5.35531e-05
5.14114e-05
5.14174e-05
5.14112e-05
5.35454e-05
5.35566e-05
5.35386e-05
5.1417e-05
5.14116e-05
5.14154e-05
5.14108e-05
5.356e-05
5.35502e-05
5.14235e-05
5.14226e-05
5.14235e-05
5.14227e-05
5.14093e-05
5.14101e-05
5.14078e-05
5.35694e-05
5.35447e-05
5.14164e-05
5.14203e-05
5.14151e-05
5.35432e-05
5.35551e-05
5.35356e-05
5.14221e-05
5.14178e-05
5.14195e-05
5.14161e-05
5.35726e-05
5.3525e-05
5.14306e-05
5.14297e-05
5.14288e-05
5.14276e-05
5.14145e-05
5.14145e-05
5.14125e-05
5.3562e-05
5.35295e-05
5.14218e-05
5.14228e-05
5.14192e-05
5.3533e-05
5.35527e-05
5.35137e-05
5.14281e-05
5.14249e-05
5.14198e-05
5.14174e-05
5.35459e-05
5.35162e-05
5.14375e-05
5.14361e-05
5.14293e-05
5.14273e-05
5.14213e-05
5.14153e-05
5.14142e-05
5.35496e-05
5.35094e-05
5.14278e-05
5.14219e-05
5.14201e-05
5.35284e-05
5.35121e-05
5.333e-05
5.14138e-05
5.14121e-05
5.12967e-05
5.12958e-05
5.35245e-05
5.33257e-05
5.14231e-05
5.14207e-05
5.13078e-05
5.13028e-05
5.14092e-05
5.12935e-05
5.12925e-05
5.35084e-05
5.33224e-05
5.14145e-05
5.12965e-05
5.12987e-05
5.33265e-05
5.31276e-05
5.0131e-05
5.01369e-05
5.31536e-05
5.01411e-05
5.01331e-05
3.79234e-05
3.79261e-05
3.79271e-05
5.0138e-05
5.31476e-05
5.01439e-05
6.48234e-05
7.1393e-05
6.47258e-05
6.95331e-05
6.95595e-05
6.48265e-05
7.14001e-05
2.10361e-05
2.1041e-05
2.16003e-05
2.16008e-05
2.16034e-05
2.16064e-05
5.35285e-05
6.02136e-05
2.90727e-05
3.69149e-05
6.03292e-05
2.93153e-05
5.33312e-05
6.95582e-05
5.35291e-05
2.90768e-05
3.69156e-05
2.93193e-05
6.03325e-05
5.33338e-05
6.69232e-05
6.69339e-05
4.21485e-05
6.69825e-05
6.69948e-05
6.50511e-05
7.14426e-05
6.49548e-05
7.14774e-05
6.9589e-05
6.96163e-05
6.50541e-05
7.14475e-05
6.49587e-05
7.14845e-05
2.17942e-05
2.17967e-05
2.17991e-05
2.2372e-05
2.23727e-05
2.23753e-05
2.23784e-05
5.39908e-05
6.05026e-05
3.00495e-05
3.78137e-05
5.38021e-05
6.06151e-05
3.02907e-05
6.95874e-05
6.96149e-05
5.39919e-05
3.00533e-05
6.05009e-05
3.78145e-05
5.38035e-05
3.02943e-05
6.06178e-05
6.71002e-05
6.71114e-05
4.28639e-05
6.71581e-05
6.71703e-05
6.5272e-05
7.15264e-05
6.51802e-05
7.15644e-05
6.96472e-05
6.96755e-05
6.52744e-05
7.15325e-05
6.51836e-05
7.15702e-05
2.25703e-05
2.25729e-05
2.25753e-05
2.3159e-05
2.31599e-05
2.31625e-05
2.31657e-05
5.44356e-05
6.07827e-05
3.10193e-05
3.86867e-05
5.42565e-05
6.08917e-05
3.1258e-05
6.96455e-05
6.96739e-05
5.44372e-05
3.10231e-05
6.07814e-05
3.86881e-05
5.4256e-05
3.12619e-05
6.08946e-05
6.72732e-05
6.72847e-05
4.35529e-05
6.73298e-05
6.7342e-05
6.54889e-05
7.16134e-05
6.54004e-05
7.16517e-05
6.97077e-05
6.97367e-05
6.54919e-05
7.16191e-05
6.54002e-05
7.16573e-05
2.33609e-05
2.33635e-05
2.33658e-05
2.39575e-05
2.39588e-05
2.39615e-05
2.39645e-05
5.48661e-05
6.10539e-05
3.19786e-05
3.95336e-05
5.46929e-05
6.11603e-05
3.2214e-05
6.97059e-05
6.97351e-05
5.48673e-05
3.19824e-05
6.10528e-05
3.95352e-05
5.46917e-05
3.22179e-05
6.11631e-05
6.74424e-05
6.74542e-05
4.42269e-05
6.7498e-05
6.75101e-05
6.57027e-05
7.17016e-05
6.56146e-05
7.17404e-05
6.97701e-05
6.97999e-05
6.57025e-05
7.17071e-05
6.56135e-05
7.1745e-05
2.41621e-05
2.41649e-05
2.41671e-05
2.47641e-05
2.47657e-05
2.47686e-05
2.47715e-05
5.52826e-05
6.13175e-05
3.2924e-05
4.03542e-05
5.51134e-05
6.14212e-05
3.31555e-05
6.97682e-05
6.97982e-05
5.5284e-05
3.29279e-05
6.13169e-05
4.03561e-05
5.51132e-05
3.31595e-05
6.14242e-05
6.76081e-05
6.76202e-05
4.48744e-05
6.76625e-05
6.76753e-05
6.5911e-05
7.1791e-05
6.58253e-05
7.18302e-05
6.98343e-05
6.98647e-05
6.59091e-05
7.17974e-05
6.58242e-05
7.18343e-05
2.49706e-05
2.49736e-05
2.49756e-05
2.55754e-05
2.55774e-05
2.55806e-05
2.55832e-05
5.56846e-05
6.15736e-05
3.38525e-05
4.11487e-05
5.55212e-05
6.16751e-05
3.40791e-05
6.98323e-05
6.98627e-05
5.56873e-05
3.38567e-05
6.15743e-05
4.1151e-05
5.55218e-05
3.40835e-05
6.16786e-05
6.77703e-05
6.77831e-05
4.54886e-05
6.78236e-05
6.78371e-05
6.61154e-05
7.18813e-05
6.60318e-05
7.19207e-05
6.98999e-05
6.99308e-05
6.61142e-05
7.18867e-05
6.603e-05
7.19258e-05
2.57831e-05
2.57863e-05
2.57879e-05
2.63881e-05
2.63907e-05
2.63941e-05
2.63964e-05
5.60764e-05
6.18238e-05
3.47617e-05
4.19176e-05
5.59155e-05
6.19234e-05
3.49832e-05
6.98976e-05
6.99285e-05
5.60768e-05
3.47663e-05
6.18246e-05
4.19204e-05
5.59188e-05
3.49878e-05
6.19264e-05
6.79298e-05
6.7943e-05
4.60997e-05
6.79827e-05
6.79963e-05
6.63194e-05
7.19723e-05
6.6233e-05
7.20122e-05
6.99665e-05
6.99974e-05
6.63186e-05
7.19776e-05
6.62341e-05
7.20167e-05
2.65964e-05
2.65999e-05
2.6601e-05
2.71994e-05
2.72028e-05
2.72064e-05
2.72083e-05
5.64589e-05
6.20692e-05
3.56499e-05
4.26622e-05
5.63004e-05
6.21676e-05
3.58659e-05
6.9964e-05
6.99953e-05
5.64586e-05
3.56549e-05
6.20693e-05
4.26649e-05
5.63041e-05
3.58709e-05
6.21691e-05
6.80874e-05
6.81015e-05
4.66983e-05
6.81399e-05
6.81546e-05
6.65224e-05
7.20654e-05
6.64355e-05
7.21035e-05
7.00335e-05
7.00645e-05
6.6522e-05
7.20709e-05
6.64351e-05
7.21089e-05
2.74079e-05
2.74115e-05
2.74121e-05
2.80067e-05
2.80111e-05
2.80148e-05
2.80163e-05
5.68332e-05
6.23113e-05
3.6516e-05
4.33831e-05
5.66769e-05
6.24086e-05
3.6726e-05
7.00313e-05
7.00627e-05
5.68336e-05
3.65211e-05
6.23101e-05
4.33855e-05
5.66783e-05
3.67311e-05
6.24086e-05
6.8244e-05
6.8259e-05
4.72688e-05
6.82963e-05
6.83114e-05
6.67254e-05
7.2158e-05
6.66384e-05
7.21962e-05
7.01004e-05
7.01311e-05
6.67243e-05
7.21619e-05
6.66371e-05
7.22022e-05
2.82149e-05
2.82185e-05
2.82185e-05
2.88075e-05
2.88131e-05
2.88166e-05
2.88176e-05
5.71999e-05
6.25497e-05
3.73591e-05
4.40815e-05
5.70469e-05
6.26452e-05
3.75631e-05
7.00986e-05
7.01298e-05
5.72003e-05
3.73642e-05
6.25467e-05
4.40832e-05
5.70474e-05
3.75682e-05
6.2644e-05
6.83993e-05
6.84146e-05
4.78199e-05
6.84509e-05
6.84666e-05
6.6925e-05
7.22484e-05
6.68397e-05
7.22871e-05
7.01661e-05
7.01959e-05
6.69227e-05
7.22547e-05
6.68391e-05
7.22918e-05
2.90149e-05
2.90183e-05
2.90177e-05
2.95994e-05
2.96062e-05
2.96093e-05
2.96097e-05
5.75563e-05
6.27829e-05
3.81785e-05
4.47578e-05
5.74104e-05
6.28755e-05
3.8376e-05
7.0165e-05
7.01955e-05
5.75578e-05
3.81837e-05
6.27795e-05
4.47587e-05
5.74097e-05
3.83812e-05
6.28734e-05
6.85524e-05
6.8567e-05
4.83536e-05
6.86031e-05
6.86177e-05
6.71189e-05
7.23371e-05
6.70359e-05
7.23744e-05
7.02292e-05
7.02577e-05
6.71176e-05
7.23427e-05
6.70373e-05
7.23802e-05
2.98053e-05
2.98082e-05
2.98069e-05
3.03793e-05
3.03873e-05
3.03899e-05
3.03895e-05
5.7903e-05
6.30083e-05
3.89727e-05
4.54119e-05
5.77597e-05
6.30978e-05
3.91633e-05
7.02294e-05
7.02586e-05
5.79029e-05
3.89778e-05
6.30047e-05
4.54116e-05
5.77601e-05
3.91681e-05
6.30953e-05
6.87017e-05
6.87151e-05
4.88617e-05
6.87505e-05
6.87635e-05
6.73053e-05
7.24218e-05
6.72261e-05
7.24568e-05
7.0289e-05
7.03159e-05
6.73048e-05
7.24276e-05
6.72282e-05
7.24629e-05
3.05827e-05
3.05851e-05
3.05829e-05
3.11436e-05
3.11522e-05
3.11544e-05
3.1153e-05
5.82344e-05
6.32246e-05
3.97399e-05
4.60417e-05
5.80972e-05
6.33096e-05
3.99227e-05
7.02904e-05
7.03179e-05
5.82305e-05
3.97439e-05
6.32215e-05
4.60402e-05
5.80976e-05
3.99265e-05
6.3308e-05
6.88449e-05
6.88571e-05
4.9371e-05
6.88909e-05
6.89027e-05
6.74796e-05
7.25021e-05
6.74075e-05
7.25326e-05
7.03449e-05
7.037e-05
6.74814e-05
7.25083e-05
6.74096e-05
7.25389e-05
3.13427e-05
3.13448e-05
3.13415e-05
3.18875e-05
3.18961e-05
3.1898e-05
3.18954e-05
5.85474e-05
6.34287e-05
4.0477e-05
4.66444e-05
5.84182e-05
6.35083e-05
4.06512e-05
7.0347e-05
7.03725e-05
5.85425e-05
4.04795e-05
6.34271e-05
4.66421e-05
5.8415e-05
4.06534e-05
6.35084e-05
6.89803e-05
6.89909e-05
4.9838e-05
6.90232e-05
6.90331e-05
6.76442e-05
7.25753e-05
6.75763e-05
7.26032e-05
7.03966e-05
7.042e-05
6.76467e-05
7.25807e-05
6.75789e-05
7.26109e-05
3.20804e-05
3.20823e-05
3.20775e-05
3.26057e-05
3.26135e-05
3.26157e-05
3.26112e-05
5.88392e-05
6.36188e-05
4.11802e-05
4.72165e-05
5.87183e-05
6.36925e-05
4.13447e-05
7.03987e-05
7.04223e-05
5.88333e-05
4.11812e-05
6.36196e-05
4.72141e-05
5.87152e-05
4.13452e-05
6.36945e-05
6.91062e-05
6.91152e-05
5.02787e-05
6.91458e-05
6.91542e-05
6.77916e-05
7.26405e-05
6.77322e-05
7.26676e-05
7.04443e-05
7.04663e-05
6.7797e-05
7.26479e-05
6.77358e-05
7.26748e-05
3.279e-05
3.27923e-05
3.27854e-05
3.32924e-05
3.32984e-05
3.33015e-05
3.32945e-05
5.91064e-05
6.37936e-05
4.18449e-05
4.77538e-05
5.89972e-05
6.38604e-05
4.19983e-05
7.04458e-05
7.04675e-05
5.91005e-05
4.18446e-05
6.37952e-05
4.77522e-05
5.89925e-05
4.19979e-05
6.38637e-05
6.92218e-05
6.92295e-05
5.06834e-05
6.92575e-05
6.9265e-05
6.79253e-05
7.27022e-05
6.78719e-05
7.27259e-05
7.04885e-05
7.05093e-05
6.7931e-05
7.27087e-05
6.78753e-05
7.27332e-05
3.34654e-05
3.3469e-05
3.34594e-05
3.39418e-05
3.39448e-05
3.39498e-05
3.39397e-05
5.93457e-05
6.39522e-05
4.24663e-05
4.82526e-05
5.92492e-05
6.40115e-05
4.26074e-05
7.04884e-05
7.05085e-05
5.93394e-05
4.24658e-05
6.3954e-05
4.82527e-05
5.92448e-05
4.26071e-05
6.4014e-05
6.93253e-05
6.93336e-05
5.10696e-05
6.93571e-05
6.93658e-05
6.80414e-05
7.27574e-05
6.79961e-05
7.27793e-05
7.05299e-05
7.05496e-05
6.80465e-05
7.2764e-05
6.80011e-05
7.27859e-05
3.41011e-05
3.41067e-05
3.40938e-05
3.45487e-05
3.4548e-05
3.45555e-05
3.45421e-05
5.95572e-05
6.40931e-05
4.30401e-05
4.87101e-05
5.94729e-05
6.41444e-05
4.3168e-05
7.05274e-05
7.05465e-05
5.95518e-05
4.30402e-05
6.40943e-05
4.87123e-05
5.94691e-05
4.31683e-05
6.41465e-05
6.94184e-05
6.94278e-05
5.14165e-05
6.94473e-05
6.94573e-05
6.81415e-05
7.2808e-05
6.81013e-05
7.28286e-05
7.05687e-05
7.05876e-05
6.81468e-05
7.28146e-05
6.81059e-05
7.28348e-05
3.46923e-05
3.47005e-05
3.46845e-05
3.51093e-05
3.51044e-05
3.51145e-05
3.50984e-05
5.9742e-05
6.42167e-05
4.3563e-05
4.91246e-05
5.96684e-05
6.42612e-05
4.36773e-05
7.05642e-05
7.05829e-05
5.97356e-05
4.35643e-05
6.42171e-05
4.91285e-05
5.9665e-05
4.36791e-05
6.42631e-05
6.95009e-05
6.95116e-05
5.17327e-05
6.95265e-05
6.95373e-05
6.82283e-05
7.28555e-05
6.81934e-05
7.28753e-05
7.06055e-05
7.06237e-05
6.82308e-05
7.28622e-05
6.81963e-05
7.28802e-05
3.52363e-05
3.5247e-05
3.52284e-05
3.56214e-05
3.56127e-05
3.5625e-05
3.56069e-05
5.99006e-05
6.4326e-05
4.40337e-05
4.94972e-05
5.98374e-05
6.43642e-05
4.41345e-05
7.05999e-05
7.06182e-05
5.9896e-05
4.40372e-05
6.43267e-05
4.95026e-05
5.98358e-05
4.41386e-05
6.43662e-05
6.95753e-05
6.95852e-05
5.20257e-05
6.95987e-05
6.96075e-05
6.83015e-05
7.29006e-05
6.82745e-05
7.29191e-05
7.06407e-05
7.06583e-05
6.83067e-05
7.29055e-05
6.82777e-05
7.29236e-05
3.57317e-05
3.57446e-05
3.57243e-05
3.60837e-05
3.60715e-05
3.60855e-05
3.60665e-05
6.00404e-05
6.44223e-05
4.44531e-05
4.98287e-05
5.99859e-05
6.44546e-05
4.45412e-05
7.06347e-05
7.06527e-05
6.00311e-05
4.4458e-05
6.44232e-05
4.98355e-05
5.99786e-05
4.4546e-05
6.44577e-05
6.96422e-05
6.96495e-05
5.22948e-05
6.96631e-05
6.96691e-05
6.83633e-05
7.29428e-05
6.83392e-05
7.29602e-05
7.0674e-05
7.06911e-05
6.83741e-05
7.29481e-05
6.8347e-05
7.29654e-05
3.61776e-05
3.61919e-05
3.6171e-05
3.64964e-05
3.64809e-05
3.64959e-05
3.64767e-05
6.01663e-05
6.45061e-05
4.48246e-05
5.0119e-05
6.01196e-05
6.45328e-05
4.49004e-05
7.06686e-05
7.06862e-05
6.01433e-05
4.48283e-05
6.45091e-05
5.01263e-05
6.00998e-05
4.49037e-05
6.45396e-05
6.97007e-05
6.97051e-05
5.25239e-05
6.97192e-05
6.97229e-05
6.84177e-05
7.29832e-05
6.83978e-05
7.29995e-05
7.07062e-05
7.07229e-05
6.84323e-05
7.29884e-05
6.84088e-05
7.30046e-05
3.65741e-05
3.65894e-05
3.65686e-05
3.68609e-05
3.68421e-05
3.68572e-05
3.68383e-05
6.02798e-05
6.45781e-05
4.51492e-05
5.03691e-05
6.02359e-05
6.46018e-05
4.52142e-05
7.07012e-05
7.07184e-05
6.02404e-05
4.51498e-05
6.45796e-05
5.03762e-05
6.02095e-05
4.52132e-05
6.46017e-05
6.97521e-05
6.97541e-05
5.27216e-05
6.97678e-05
6.97702e-05
6.84672e-05
7.30203e-05
6.84475e-05
7.30352e-05
7.07372e-05
7.07534e-05
6.84851e-05
7.30253e-05
6.84639e-05
7.30403e-05
3.69232e-05
3.69381e-05
3.69178e-05
3.71794e-05
3.71578e-05
3.71718e-05
3.71528e-05
6.03764e-05
6.4642e-05
4.54321e-05
5.05832e-05
6.03406e-05
6.46644e-05
4.54864e-05
7.07329e-05
7.07499e-05
6.03324e-05
4.5427e-05
6.46395e-05
5.05886e-05
6.02978e-05
4.54803e-05
6.46599e-05
6.97958e-05
6.98006e-05
5.28867e-05
6.98095e-05
6.98153e-05
6.85135e-05
7.30545e-05
6.84954e-05
7.30692e-05
7.07666e-05
7.07819e-05
6.8532e-05
7.30595e-05
6.85127e-05
7.30734e-05
3.72276e-05
3.72412e-05
3.72207e-05
3.74542e-05
3.74307e-05
3.74433e-05
3.74231e-05
6.04559e-05
6.46944e-05
4.5674e-05
5.07631e-05
6.04322e-05
6.47128e-05
4.57181e-05
7.0764e-05
7.07804e-05
6.04177e-05
4.56659e-05
6.46954e-05
5.07676e-05
6.03881e-05
4.57096e-05
6.47146e-05
6.98361e-05
6.9844e-05
5.30268e-05
6.98504e-05
6.98589e-05
6.85582e-05
7.30878e-05
6.85409e-05
7.31009e-05
7.07935e-05
7.08079e-05
6.85689e-05
7.30902e-05
6.85538e-05
7.31017e-05
3.749e-05
3.75024e-05
3.74805e-05
3.76876e-05
3.76638e-05
3.7675e-05
3.76527e-05
6.05284e-05
6.47461e-05
4.58779e-05
5.09139e-05
6.05069e-05
6.47638e-05
4.59126e-05
7.07927e-05
7.08075e-05
6.04956e-05
4.5869e-05
6.47472e-05
5.09174e-05
6.04713e-05
4.59039e-05
6.47669e-05
6.98734e-05
6.98848e-05
5.31452e-05
6.98814e-05
6.9896e-05
6.8601e-05
7.31165e-05
6.85831e-05
7.31279e-05
7.08184e-05
7.08323e-05
6.86128e-05
7.31185e-05
6.85941e-05
7.31309e-05
3.77134e-05
3.77246e-05
3.77004e-05
3.78828e-05
3.78596e-05
3.78694e-05
3.78447e-05
6.05826e-05
6.4793e-05
4.60476e-05
5.10408e-05
6.05689e-05
6.47951e-05
4.6074e-05
7.08166e-05
7.08293e-05
6.05677e-05
4.60404e-05
6.47837e-05
5.10416e-05
6.05399e-05
4.60674e-05
6.47873e-05
6.98849e-05
6.99171e-05
5.32424e-05
6.98868e-05
6.99187e-05
6.86465e-05
7.31448e-05
6.8632e-05
7.31559e-05
7.08414e-05
7.08537e-05
6.86257e-05
7.31465e-05
6.86178e-05
7.31572e-05
3.79006e-05
3.79102e-05
3.78839e-05
3.80435e-05
3.80197e-05
3.80291e-05
3.80031e-05
6.06487e-05
6.48105e-05
4.61875e-05
5.11462e-05
6.06209e-05
6.48234e-05
4.62064e-05
7.08356e-05
7.08476e-05
6.06361e-05
4.61829e-05
6.48166e-05
5.11457e-05
6.06104e-05
4.62027e-05
6.48351e-05
6.99044e-05
6.99298e-05
5.33197e-05
6.99153e-05
6.99305e-05
6.86666e-05
7.31664e-05
6.86656e-05
7.3176e-05
7.0859e-05
7.08688e-05
6.86492e-05
7.31681e-05
6.86359e-05
7.31755e-05
3.80525e-05
3.8062e-05
3.8035e-05
3.81703e-05
3.81451e-05
3.81555e-05
3.81296e-05
6.06979e-05
6.48473e-05
4.63002e-05
5.12316e-05
6.06903e-05
6.48644e-05
4.63145e-05
7.08543e-05
7.08663e-05
6.06467e-05
4.62994e-05
6.48544e-05
5.12328e-05
6.06447e-05
4.63142e-05
6.48584e-05
6.99433e-05
6.99417e-05
5.33875e-05
6.99501e-05
6.99483e-05
6.86673e-05
7.31812e-05
6.86593e-05
7.31897e-05
7.08718e-05
7.08814e-05
6.86783e-05
7.31856e-05