/*--------------------------------*- C++ -*----------------------------------*\
| =========                 |                                                 |
| \\      /  F ield         | OpenFOAM: The Open Source CFD Toolbox           |
|  \\    /   O peration     | Version:  v2012                                 |
|   \\  /    A nd           | Website:  www.openfoam.com                      |
|    \\/     M anipulation  |                                                 |
\*---------------------------------------------------------------------------*/
FoamFile
{
    version     2.0;
    format      ascii;
    class       volScalarField;
    location    "300";
    object      nut;
}
// * * * * * * * * * * * * * * * * * * * * * * * * * * * * * * * * * * * * * //

dimensions      [0 2 -1 0 0 0 0];


internalField   nonuniform List<scalar> 
85864
(
0.000123067
0.000139416
0.000137125
0.00013942
0.000139424
0.000139405
0.000137132
5.00207e-05
5.00178e-05
9.20841e-05
0.000123056
2.36101e-05
9.38332e-05
2.36129e-05
2.36116e-05
7.3769e-05
7.37644e-05
9.38358e-05
9.38351e-05
0.000134871
0.000121351
5.00133e-05
9.20749e-05
0.000134862
9.38279e-05
0.000121347
7.37523e-05
7.37673e-05
2.36119e-05
5.00133e-05
5.00232e-05
7.60379e-05
2.01034e-05
2.01067e-05
5.00211e-05
7.60632e-05
7.61034e-05
2.01047e-05
3.62748e-05
9.21779e-05
8.82383e-05
4.05439e-05
8.83135e-05
4.05432e-05
3.6274e-05
2.36122e-05
2.3615e-05
2.36137e-05
9.74367e-05
0.000112739
7.38008e-05
4.79416e-05
4.79508e-05
0.000112914
9.73874e-05
9.74491e-05
0.000112739
7.37962e-05
4.79343e-05
4.79363e-05
0.000112892
9.73983e-05
7.88811e-05
2.14922e-05
2.1489e-05
2.14943e-05
2.14911e-05
7.88637e-05
2.01049e-05
5.00171e-05
7.60334e-05
7.60756e-05
2.01028e-05
3.62724e-05
9.21718e-05
4.05436e-05
8.82197e-05
4.05429e-05
8.82952e-05
3.62709e-05
9.7444e-05
0.000112723
7.37801e-05
4.79338e-05
4.79351e-05
0.000112884
9.73917e-05
9.74385e-05
0.000112749
7.38012e-05
4.79413e-05
0.000112904
4.79507e-05
9.73811e-05
7.88815e-05
2.14886e-05
2.1492e-05
2.14907e-05
2.14941e-05
7.88639e-05
2.3614e-05
5.00215e-05
0.000120584
0.000119899
0.000130071
0.000130083
0.000137424
0.000130326
0.000130323
0.000119766
0.000119899
0.000130073
0.000130073
0.000137385
0.000130332
0.000130316
0.00011976
0.000120572
0.000129184
0.000122342
9.39814e-05
0.000107764
0.000122537
0.000107953
0.000128827
0.000129074
0.000122355
9.39799e-05
0.000107765
0.000107952
0.000122526
0.000128979
0.000129211
0.000122339
9.39676e-05
0.000107762
0.00010797
0.000122526
0.00012885
0.000133462
0.000121655
0.000117639
0.000135117
0.000117891
0.000135549
0.000133187
0.000129038
0.000122367
9.39529e-05
0.000107754
0.000107941
0.000122466
0.000129005
0.000133264
0.000121648
0.000135142
0.000117629
0.000135547
0.000117874
0.000133254
0.000139425
0.000137104
0.000125864
0.000142545
0.000142537
0.00013955
0.000128818
0.000145627
0.000145621
0.000141928
0.000131908
0.000148666
0.000148661
0.000144237
0.000135113
0.000151656
0.000151653
0.000146529
0.000138413
0.000154595
0.000154592
0.000148823
0.000141789
0.000157475
0.000157474
0.000151055
0.000145223
0.0001603
0.000160298
0.000153139
0.000148698
0.000163064
0.000163062
0.000155162
0.000152198
0.000165768
0.000165765
0.000157155
0.000155708
0.000168409
0.000168406
0.000159119
0.000159214
0.000170983
0.00017098
0.000161024
0.000162699
0.000173482
0.000173478
0.000162924
0.000166144
0.000175893
0.000175889
0.000164603
0.000169528
0.000178207
0.000178204
0.000166231
0.000172828
0.00018041
0.000180409
0.000167772
0.000176019
0.000182491
0.000182492
0.000169221
0.000179078
0.000184439
0.000184445
0.000170507
0.00018198
0.00018625
0.000186257
0.000171742
0.000184708
0.000187922
0.000187933
0.000172882
0.000187247
0.000189462
0.000189479
0.000174042
0.000189581
0.000190856
0.000190877
0.000175024
0.000191704
0.000192102
0.000192124
0.000175907
0.000193606
0.000193203
0.000193223
0.000176666
0.000195291
0.000194161
0.000194179
0.000177321
0.000196766
0.000194982
0.000195
0.000177895
0.000198025
0.000195681
0.000195695
0.000178364
0.000199071
0.000196264
0.000196267
0.00017878
0.000199896
0.000196722
0.000196733
0.000179083
0.000200487
0.000197061
0.000197081
0.000179312
0.000200874
0.000197292
0.000197311
0.000179535
0.000201088
0.000197421
0.000197443
0.000179606
0.000201133
0.000197469
0.000197491
0.000179656
0.000201175
0.000197484
0.000197495
0.000179694
0.000201189
0.000197508
0.000197514
0.000179765
0.000201142
0.000197518
0.000197529
0.000179862
0.000201134
0.00019754
0.000197544
0.000179878
0.000201145
0.000197556
0.000197559
0.000179832
0.000201157
0.000197568
0.000197578
0.000179841
0.000201164
0.000197592
0.0001976
0.000179898
0.000201183
0.00019761
0.000197619
0.000179921
0.000201209
0.000197626
0.000197639
0.000179918
0.000201232
0.000197645
0.000197657
0.000179924
0.000201252
0.000197667
0.000197679
0.000179977
0.000201281
0.000197689
0.000197698
0.000179902
0.000201312
0.000197708
0.000197714
0.000179843
0.000201299
0.000197642
0.000197639
0.00017971
0.000202193
0.000197982
0.000197974
0.000182289
0.000139255
0.000139415
0.000141755
0.000141755
0.000137284
0.000139132
0.00014176
0.000141745
0.000139435
0.000141765
0.000141774
0.000139245
0.00013944
0.000141757
0.00014178
0.000139259
0.000139546
0.000141593
0.000142539
0.000142535
0.000144846
0.000144847
0.000139612
0.000141545
0.000142544
0.000142526
0.000144851
0.000144838
0.000142554
0.000144858
0.000144865
0.000139584
0.000141647
0.00014256
0.000144851
0.000144872
0.000141599
0.000141922
0.000143943
0.000145621
0.000145618
0.000147894
0.000147899
0.000141989
0.000143863
0.000145626
0.000145608
0.0001479
0.000147888
0.000145634
0.000147908
0.000147913
0.000141931
0.00014396
0.000145641
0.000147904
0.000147921
0.000143952
0.000144219
0.000146223
0.000148657
0.000148657
0.000150895
0.000150901
0.000144322
0.000146135
0.000148664
0.000148647
0.000150902
0.000150892
0.000148671
0.000150912
0.000150914
0.000144241
0.000146163
0.000148679
0.000150909
0.000150925
0.000146244
0.000146523
0.000148447
0.000151647
0.000151648
0.000153846
0.000153853
0.000146656
0.000148343
0.000151654
0.000151638
0.000153853
0.000153844
0.000151659
0.000153865
0.000153864
0.000146615
0.000148394
0.00015167
0.000153862
0.000153876
0.00014841
0.000148734
0.000150573
0.000154584
0.000154587
0.00015674
0.000156749
0.000148917
0.000150597
0.000154591
0.000154577
0.000156747
0.000156739
0.000154596
0.000156761
0.000156759
0.00014881
0.000150691
0.000154608
0.000156759
0.000156771
0.000150597
0.000150993
0.000152703
0.000157463
0.000157467
0.000159577
0.000159586
0.00015099
0.000152707
0.000157471
0.000157458
0.000159584
0.000159578
0.000157477
0.0001596
0.000159595
0.000150948
0.000152809
0.000157489
0.000159599
0.000159608
0.000152676
0.000153174
0.000154735
0.000160286
0.000160292
0.000162353
0.000162366
0.000153202
0.000154832
0.000160295
0.000160282
0.000162361
0.000162356
0.000160298
0.00016238
0.000162371
0.000153077
0.000154804
0.000160312
0.000162378
0.000162387
0.000154921
0.00015525
0.000156836
0.000163049
0.000163055
0.000165068
0.000165083
0.000155222
0.000156864
0.000163058
0.000163046
0.000165078
0.000165074
0.000163059
0.0001651
0.000165086
0.000155216
0.000156965
0.000163076
0.000165096
0.000165105
0.000156912
0.000157185
0.000158909
0.000165751
0.000165759
0.000167723
0.000167739
0.000157278
0.00015883
0.000165761
0.000165749
0.000167733
0.000167729
0.000165759
0.000167754
0.000167739
0.000157216
0.00015884
0.000165779
0.000167751
0.000167759
0.000158912
0.000159137
0.000160816
0.000168391
0.000168401
0.00017031
0.000170329
0.00015923
0.000160769
0.000168402
0.00016839
0.000170322
0.000170318
0.000168397
0.000170342
0.000170322
0.000159217
0.000160752
0.000168417
0.000170339
0.000170341
0.000160793
0.000161028
0.000162595
0.000170964
0.000170975
0.000172823
0.000172842
0.000161127
0.000162661
0.000170976
0.000170963
0.000172834
0.000172832
0.000170966
0.000172856
0.000172835
0.000161126
0.000162608
0.000170985
0.000172853
0.000172853
0.000162569
0.000162937
0.000164364
0.000173459
0.00017347
0.00017525
0.000175268
0.000162933
0.000164439
0.000173471
0.000173459
0.000175261
0.000175258
0.000173462
0.000175284
0.000175261
0.000162937
0.000164404
0.000173479
0.000175281
0.000175277
0.000164413
0.000164666
0.000166072
0.000175866
0.000175875
0.000177578
0.000177593
0.000164612
0.000166091
0.000175878
0.000175864
0.00017759
0.000177586
0.000175867
0.000177614
0.000177587
0.000164678
0.000166005
0.000175882
0.000177612
0.000177601
0.000166044
0.000166259
0.000167629
0.000178172
0.000178177
0.000179797
0.00017981
0.000166256
0.0001676
0.000178183
0.00017817
0.000179809
0.000179806
0.000178169
0.000179837
0.000179802
0.000166332
0.00016761
0.000178182
0.000179837
0.000179813
0.00016759
0.000167772
0.000169066
0.000180364
0.000180366
0.000181896
0.000181903
0.000167816
0.000169084
0.000180377
0.000180362
0.00018191
0.000181904
0.000180357
0.000181938
0.000181896
0.000167843
0.000169056
0.000180367
0.00018194
0.000181904
0.000169015
0.000169223
0.0001704
0.000182434
0.000182429
0.000183864
0.000183865
0.000169229
0.000170419
0.000182449
0.000182432
0.00018388
0.000183872
0.000182421
0.000183911
0.000183858
0.000169239
0.000170411
0.000182429
0.000183916
0.000183866
0.000170356
0.000170496
0.000171638
0.000184369
0.000184358
0.000185696
0.000185691
0.000170547
0.000171663
0.000184386
0.000184366
0.000185715
0.000185703
0.000184349
0.000185748
0.000185684
0.000170559
0.000171663
0.000184358
0.000185755
0.000185695
0.000171621
0.000171753
0.000172788
0.000186166
0.000186149
0.000187392
0.00018738
0.000171771
0.00017281
0.000186187
0.000186161
0.000187414
0.000187393
0.000186141
0.000187446
0.00018737
0.000171797
0.000172813
0.000186153
0.000187457
0.000187384
0.000172724
0.000172889
0.000173956
0.000187826
0.000187803
0.000188957
0.000188939
0.000172917
0.000173979
0.000187849
0.000187817
0.000188982
0.000188954
0.000187791
0.000189013
0.000188929
0.000172915
0.000173979
0.000187806
0.000189029
0.000188944
0.000173931
0.000174074
0.000174977
0.000189356
0.000189327
0.000190383
0.000190359
0.000174091
0.000175
0.000189381
0.000189343
0.00019041
0.000190377
0.000189316
0.00019044
0.000190349
0.000174092
0.000174996
0.000189332
0.000190461
0.000190362
0.000174941
0.000175065
0.000175885
0.000190742
0.000190709
0.000191667
0.000191634
0.000175081
0.000175886
0.000190771
0.000190726
0.0001917
0.000191654
0.000190697
0.000191723
0.000191626
0.000175085
0.000175896
0.00019071
0.000191746
0.000191634
0.000175845
0.00017595
0.000176674
0.000191987
0.000191942
0.000192809
0.000192761
0.000175947
0.000176658
0.000192023
0.000191964
0.00019285
0.000192786
0.000191936
0.00019286
0.000192758
0.000175954
0.000176676
0.000191943
0.000192882
0.000192767
0.000176634
0.000176708
0.000177353
0.000193089
0.000193031
0.000193812
0.000193757
0.000176697
0.000177336
0.000193131
0.000193056
0.000193858
0.000193785
0.000193027
0.000193859
0.00019375
0.000176711
0.000177344
0.000193038
0.000193878
0.000193762
0.000177308
0.000177368
0.000177954
0.000194053
0.000193993
0.000194688
0.000194626
0.000177341
0.000177908
0.000194101
0.000194019
0.000194733
0.000194654
0.000193982
0.00019472
0.000194617
0.000177368
0.000177928
0.000193994
0.000194737
0.000194625
0.000177903
0.00017792
0.000178435
0.000194897
0.000194826
0.000195441
0.000195368
0.000177912
0.00017839
0.000194937
0.000194853
0.000195472
0.000195394
0.000194815
0.000195453
0.000195356
0.000177892
0.00017842
0.000194823
0.000195469
0.000195361
0.00017844
0.000178451
0.000178871
0.00019561
0.00019553
0.000196053
0.000195984
0.000178407
0.000178878
0.000195641
0.000195556
0.000196081
0.000196004
0.000195515
0.000196066
0.000195952
0.00017837
0.000178863
0.000195521
0.000196072
0.000195968
0.000178856
0.000178862
0.000179133
0.000196187
0.000196117
0.000196544
0.000196486
0.000178789
0.000179188
0.000196215
0.000196134
0.000196573
0.000196485
0.000196078
0.000196559
0.000196439
0.000178835
0.000179182
0.000196097
0.000196569
0.000196457
0.000179156
0.000179149
0.000179404
0.000196649
0.000196588
0.000196928
0.000196863
0.000179117
0.000179388
0.000196678
0.000196585
0.00019695
0.000196865
0.000196543
0.000196934
0.000196829
0.00017916
0.000179439
0.000196558
0.000196952
0.000196836
0.000179425
0.000179332
0.000179634
0.000196994
0.000196926
0.000197191
0.000197116
0.000179311
0.000179521
0.000197015
0.000196935
0.000197211
0.000197129
0.000196893
0.000197205
0.000197084
0.000179402
0.000179651
0.000196907
0.000197222
0.000197109
0.000179525
0.000179512
0.000179777
0.000197215
0.000197139
0.000197345
0.000197272
0.000179506
0.000179704
0.00019724
0.000197151
0.000197374
0.000197273
0.00019711
0.000197369
0.000197246
0.000179498
0.000179742
0.000197137
0.000197389
0.000197274
0.000179661
0.000179618
0.000179843
0.000197349
0.000197282
0.000197449
0.000197384
0.000179645
0.000179782
0.00019738
0.000197277
0.000197476
0.00019737
0.000197261
0.000197443
0.00019738
0.000179559
0.000179693
0.000197287
0.000197462
0.000197403
0.000179817
0.000179668
0.000179913
0.000197442
0.000197376
0.000197515
0.000197444
0.000179688
0.000179805
0.000197471
0.000197352
0.000197546
0.000197412
0.000197373
0.000197469
0.000197462
0.000179641
0.000179803
0.000197402
0.000197482
0.000197494
0.000179847
0.000179737
0.000179947
0.000197505
0.000197437
0.000197559
0.000197473
0.000179722
0.000179816
0.000197532
0.000197415
0.000197582
0.000197457
0.000197453
0.000197503
0.000197516
0.000179628
0.000179845
0.000197482
0.000197507
0.000197546
0.00017988
0.000179763
0.000179914
0.000197549
0.000197471
0.000197575
0.000197491
0.000179669
0.00017976
0.000197577
0.000197459
0.000197601
0.000197493
0.000197508
0.000197515
0.000197546
0.000179678
0.000179881
0.000197543
0.000197525
0.000197578
0.000179881
0.00017973
0.000179922
0.00019757
0.000197485
0.000197585
0.000197508
0.000179697
0.000179772
0.000197596
0.000197492
0.000197609
0.000197516
0.000197543
0.000197537
0.00019757
0.0001797
0.000179912
0.000197574
0.000197539
0.000197596
0.000179906
0.000179743
0.000179949
0.000197577
0.0001975
0.000197583
0.000197522
0.000179743
0.000179835
0.000197599
0.00019751
0.000197614
0.000197529
0.000197565
0.000197552
0.00019759
0.000179735
0.000179938
0.000197591
0.000197557
0.000197604
0.000180008
0.000179776
0.000179968
0.000197585
0.000197515
0.000197589
0.000197526
0.000179797
0.000179848
0.000197603
0.000197518
0.000197607
0.000197526
0.000197583
0.000197563
0.000197598
0.000179751
0.000179936
0.000197609
0.00019757
0.00019762
0.000179983
0.000179791
0.000179932
0.000197592
0.00019753
0.000197589
0.00019754
0.000179832
0.000179905
0.000197601
0.000197532
0.000197606
0.000197547
0.000197595
0.000197584
0.000197601
0.000179751
0.000179936
0.000197625
0.000197593
0.000197633
0.000179936
0.000179755
0.000179957
0.000197595
0.000197548
0.000197595
0.000197558
0.000179845
0.000179913
0.000197615
0.000197556
0.000197614
0.000197564
0.000197606
0.000197603
0.000197606
0.00017983
0.000179882
0.000197641
0.000197612
0.000197643
0.000179976
0.000179782
0.000179869
0.000197604
0.00019757
0.000197603
0.000197579
0.000179868
0.000179913
0.000197622
0.000197575
0.000197618
0.000197581
0.000197614
0.000197618
0.000197618
0.000179872
0.000179964
0.000197651
0.00019763
0.000197652
0.000180025
0.000179703
0.000179894
0.000197612
0.000197593
0.000197606
0.000197599
0.000179893
0.000180011
0.000197627
0.000197594
0.000197626
0.000197601
0.000197629
0.000197634
0.000197634
0.000179882
0.000180038
0.000197663
0.000197647
0.000197666
0.000180004
0.000179757
0.000179953
0.000197618
0.000197613
0.000197617
0.000197616
0.000179831
0.000180032
0.000197639
0.000197617
0.000197645
0.000197626
0.000197648
0.000197653
0.000197653
0.000179862
0.00018005
0.000197681
0.000197666
0.000197687
0.00018003
0.000179868
0.000179925
0.000197633
0.000197633
0.000197635
0.000197639
0.000179869
0.000180017
0.000197663
0.000197645
0.000197669
0.000197654
0.00019767
0.000197673
0.000197669
0.000179881
0.00017998
0.000197703
0.000197684
0.000197703
0.00018004
0.000179833
0.000179881
0.000197655
0.00019766
0.000197652
0.000197659
0.000179964
0.000179831
0.000197689
0.000197674
0.000197688
0.000197675
0.000197688
0.000197689
0.000197685
0.000179818
0.000179879
0.000197721
0.000197695
0.000197716
0.000179969
0.000179779
0.000179833
0.000197675
0.000197683
0.000197697
0.000197707
0.000179757
0.000179881
0.000197711
0.000197698
0.000197734
0.000197722
0.000197709
0.000197734
0.000197735
0.000179742
0.000179764
0.000197739
0.00019774
0.000197764
0.000179934
0.000179584
0.000180914
0.0001976
0.000197615
0.000200039
0.000200057
0.000179683
0.000180891
0.000197637
0.00019762
0.000200076
0.000200068
0.000197643
0.000200027
0.000200087
0.000179597
0.000180872
0.000197669
0.000200025
0.000200111
0.00018102
0.000182126
0.000197829
0.000197907
0.00018233
0.000197861
0.000197836
0.000202297
0.000202276
0.000202286
0.000197901
0.000182291
0.000197921
9.22936e-05
5.00305e-05
9.20662e-05
2.3612e-05
2.36165e-05
9.2304e-05
5.00298e-05
0.000123053
0.000123074
0.000125105
0.000125111
0.000125113
0.000125136
0.000121983
9.38451e-05
0.000134858
0.000140204
9.41153e-05
0.000135711
0.000121344
2.36145e-05
0.000121982
0.000134876
0.000140194
0.000135727
9.41327e-05
0.00012135
7.37705e-05
7.37655e-05
0.000138039
7.38631e-05
7.38671e-05
9.27686e-05
5.00502e-05
9.25487e-05
5.006e-05
2.36215e-05
2.36261e-05
9.27795e-05
5.00443e-05
9.25541e-05
5.00597e-05
0.000125849
0.00012585
0.00012587
0.000128018
0.000128027
0.000128028
0.000128051
0.000123289
9.44508e-05
0.000138354
0.000143316
0.000122676
9.47118e-05
0.000139215
2.36195e-05
2.36242e-05
0.00012329
0.000138369
9.44321e-05
0.000143308
0.000122676
0.000139229
9.47267e-05
7.40351e-05
7.40334e-05
0.000140447
7.41248e-05
7.41253e-05
9.32252e-05
5.00768e-05
9.30149e-05
5.00927e-05
2.36313e-05
2.36362e-05
9.32294e-05
5.0074e-05
9.30244e-05
5.00895e-05
0.000128803
0.000128804
0.000128824
0.000131072
0.000131083
0.000131084
0.000131107
0.00012455
9.50285e-05
0.000141877
0.000146387
0.000123969
9.52965e-05
0.000142742
2.36293e-05
2.36341e-05
0.000124557
0.000141891
9.50284e-05
0.000146383
0.000123962
0.000142756
9.52933e-05
7.4292e-05
7.42901e-05
0.000142789
7.43787e-05
7.4382e-05
9.36714e-05
5.01074e-05
9.34744e-05
5.01231e-05
2.36416e-05
2.36465e-05
9.36757e-05
5.01042e-05
9.34714e-05
5.01199e-05
0.000131893
0.000131893
0.000131913
0.000134247
0.000134259
0.000134261
0.000134283
0.000125779
9.55945e-05
0.00014541
0.000149416
0.000125214
9.5861e-05
0.000146276
2.36395e-05
2.36445e-05
0.000125783
0.000145423
9.5594e-05
0.000149412
0.000125205
0.000146289
9.58561e-05
7.45398e-05
7.45371e-05
0.000145129
7.46266e-05
7.46255e-05
9.41078e-05
5.01381e-05
9.39093e-05
5.0154e-05
2.36521e-05
2.36572e-05
9.41039e-05
5.01349e-05
9.39072e-05
5.01489e-05
0.000135098
0.000135099
0.000135117
0.000137522
0.000137536
0.000137538
0.000137559
0.000126973
9.61429e-05
0.000148938
0.000152397
0.000126417
9.63962e-05
0.000149801
2.36501e-05
2.36552e-05
0.000126977
0.00014895
9.61449e-05
0.000152393
0.000126411
0.000149813
9.6401e-05
7.47786e-05
7.47788e-05
0.000147391
7.48662e-05
7.48704e-05
9.45277e-05
5.01692e-05
9.43366e-05
5.01853e-05
2.3663e-05
2.36682e-05
9.45205e-05
5.01687e-05
9.43328e-05
5.01793e-05
0.000138398
0.0001384
0.000138416
0.000140877
0.000140893
0.000140895
0.000140916
0.000128127
9.66824e-05
0.000152444
0.000155322
0.00012759
9.69226e-05
0.0001533
2.3661e-05
2.36661e-05
0.000128135
0.000152457
9.66812e-05
0.000155319
0.000127586
0.000153313
9.693e-05
7.5012e-05
7.50116e-05
0.000149505
7.50966e-05
7.51001e-05
9.49407e-05
5.02007e-05
9.47475e-05
5.02168e-05
2.36741e-05
2.36794e-05
9.49288e-05
5.01983e-05
9.47497e-05
5.02136e-05
0.000141775
0.000141777
0.000141791
0.000144293
0.000144312
0.000144315
0.000144334
0.000129258
9.72013e-05
0.000155917
0.00015819
0.000128723
9.74359e-05
0.000156765
2.36721e-05
2.36773e-05
0.000129255
0.000155929
9.72014e-05
0.000158189
0.00012873
0.000156777
9.74435e-05
7.52401e-05
7.52408e-05
0.000151685
7.53259e-05
7.53233e-05
9.5346e-05
5.02324e-05
9.51433e-05
5.02487e-05
2.36857e-05
2.36909e-05
9.534e-05
5.02293e-05
9.5148e-05
5.02436e-05
0.000145209
0.000145212
0.000145224
0.000147754
0.000147776
0.00014778
0.000147797
0.00013036
9.77085e-05
0.000159346
0.000161002
0.000129833
9.79399e-05
0.000160182
2.36833e-05
2.36886e-05
0.000130356
0.000159359
9.77052e-05
0.000161
0.000129841
0.000160194
9.79442e-05
7.54611e-05
7.54627e-05
0.000153871
7.55443e-05
7.55476e-05
9.57421e-05
5.02675e-05
9.5542e-05
5.02784e-05
2.36971e-05
2.37024e-05
9.57366e-05
5.02642e-05
9.55373e-05
5.02751e-05
0.000148685
0.000148689
0.000148698
0.000151242
0.000151269
0.000151273
0.000151288
0.00013144
9.82033e-05
0.000162719
0.000163753
0.000130917
9.84346e-05
0.00016354
2.36948e-05
2.37001e-05
0.000131438
0.00016273
9.82005e-05
0.00016375
0.000130916
0.000163551
9.84334e-05
7.56794e-05
7.56829e-05
0.000155929
7.57593e-05
7.57634e-05
9.61339e-05
5.02994e-05
9.59309e-05
5.03116e-05
2.37086e-05
2.37139e-05
9.61265e-05
5.02933e-05
9.59274e-05
5.03101e-05
0.000152186
0.00015219
0.000152197
0.000154742
0.000154773
0.000154778
0.000154791
0.000132499
9.86926e-05
0.000166029
0.000166441
0.000131982
9.89151e-05
0.000166833
2.37063e-05
2.37117e-05
0.000132497
0.00016604
9.8685e-05
0.000166438
0.000131981
0.000166845
9.89153e-05
7.58966e-05
7.5899e-05
0.000157916
7.59714e-05
7.5983e-05
9.65142e-05
5.03291e-05
9.63156e-05
5.03445e-05
2.372e-05
2.37252e-05
9.64977e-05
5.03287e-05
9.63213e-05
5.03398e-05
0.000155696
0.0001557
0.000155704
0.00015824
0.000158274
0.000158279
0.00015829
0.000133519
9.91624e-05
0.000169272
0.000169065
0.000133028
9.93851e-05
0.000170055
2.37178e-05
2.37232e-05
0.00013353
0.000169284
9.91521e-05
0.000169062
0.000133025
0.000170068
9.93869e-05
7.61057e-05
7.61066e-05
0.000159848
7.61788e-05
7.6188e-05
9.68784e-05
5.03608e-05
9.66876e-05
5.03762e-05
2.37311e-05
2.37361e-05
9.68658e-05
5.03577e-05
9.67015e-05
5.03734e-05
0.0001592
0.000159204
0.000159204
0.000161718
0.000161754
0.000161761
0.000161766
0.000134516
9.96126e-05
0.000172439
0.000171618
0.000134031
9.98329e-05
0.000173197
2.37291e-05
2.37342e-05
0.000134521
0.000172454
9.96078e-05
0.000171615
0.000134033
0.000173211
9.98219e-05
7.63079e-05
7.631e-05
0.000161663
7.6379e-05
7.63802e-05
9.72295e-05
5.03914e-05
9.70509e-05
5.0406e-05
2.37417e-05
2.37465e-05
9.72212e-05
5.03884e-05
9.70598e-05
5.04032e-05
0.000162679
0.000162684
0.000162679
0.000165157
0.000165194
0.000165202
0.000165203
0.000135467
0.000100045
0.000175523
0.000174091
0.000134997
0.000100254
0.000176249
2.37399e-05
2.37448e-05
0.000135457
0.000175536
0.000100046
0.000174087
0.000135008
0.000176261
0.000100248
7.64996e-05
7.65025e-05
0.000163563
7.65686e-05
7.65674e-05
9.7551e-05
5.04228e-05
9.73954e-05
5.04319e-05
2.37516e-05
2.37561e-05
9.75518e-05
5.04204e-05
9.74012e-05
5.0429e-05
0.000166113
0.00016612
0.000166108
0.000168539
0.000168572
0.000168582
0.000168576
0.000136363
0.000100452
0.000178511
0.000176471
0.000135918
0.000100648
0.000179199
2.375e-05
2.37546e-05
0.000136355
0.000178521
0.000100456
0.000176468
0.000135917
0.000179208
0.000100646
7.66812e-05
7.66814e-05
0.000165245
7.6745e-05
7.67417e-05
9.78614e-05
5.04497e-05
9.77093e-05
5.04581e-05
2.37609e-05
2.37651e-05
9.78636e-05
5.04442e-05
9.77137e-05
5.04572e-05
0.000169479
0.000169489
0.000169469
0.000171841
0.000171865
0.000171878
0.000171863
0.000137202
0.00010083
0.00018139
0.000178748
0.000136781
0.000101012
0.000182033
2.37593e-05
2.37636e-05
0.000137192
0.000181397
0.000100836
0.000178747
0.000136779
0.00018204
0.000101014
7.68488e-05
7.68458e-05
0.000166841
7.69083e-05
7.69023e-05
9.81287e-05
5.04712e-05
9.79985e-05
5.04824e-05
2.37695e-05
2.37733e-05
9.81471e-05
5.04689e-05
9.80045e-05
5.04799e-05
0.000172755
0.000172767
0.000172737
0.00017504
0.000175051
0.000175067
0.00017504
0.000137972
0.000101177
0.000184145
0.000180909
0.000137589
0.000101341
0.000184735
2.37679e-05
2.37717e-05
0.00013796
0.000184149
0.000101181
0.00018091
0.000137581
0.00018474
0.000101346
7.70025e-05
7.69963e-05
0.000168286
7.70561e-05
7.70482e-05
9.83776e-05
5.04958e-05
9.8259e-05
5.05038e-05
2.37773e-05
2.3781e-05
9.83894e-05
5.04911e-05
9.82655e-05
5.05013e-05
0.000175915
0.00017593
0.000175887
0.000178112
0.000178104
0.000178124
0.000178084
0.00013867
0.000101492
0.00018676
0.000182943
0.000138328
0.000101637
0.000187291
2.37756e-05
2.37791e-05
0.000138657
0.000186762
0.000101496
0.000182948
0.000138324
0.000187296
0.000101641
7.71391e-05
7.7133e-05
0.00016972
7.71869e-05
7.71804e-05
9.8591e-05
5.05159e-05
9.84912e-05
5.05233e-05
2.37847e-05
2.37881e-05
9.86043e-05
5.05119e-05
9.85034e-05
5.05201e-05
0.000178933
0.000178954
0.000178896
0.000181036
0.000181004
0.00018103
0.000180974
0.000139294
0.000101771
0.00018922
0.000184843
0.000138996
0.000101896
0.000189689
2.37825e-05
2.37859e-05
0.000139284
0.000189224
0.000101773
0.000184851
0.000138986
0.000189695
0.0001019
7.72612e-05
7.72559e-05
0.000171005
7.73043e-05
7.73003e-05
9.87723e-05
5.05338e-05
9.86818e-05
5.05411e-05
2.37915e-05
2.37948e-05
9.87893e-05
5.05306e-05
9.8697e-05
5.05385e-05
0.00018179
0.000181818
0.000181744
0.000183794
0.000183731
0.000183764
0.000183693
0.000139846
0.000102014
0.000191515
0.000186605
0.000139586
0.000102124
0.00019192
2.3789e-05
2.37922e-05
0.000139827
0.000191521
0.000102015
0.000186615
0.00013958
0.00019193
0.000102129
7.73666e-05
7.73639e-05
0.000172202
7.74043e-05
7.74017e-05
9.89311e-05
5.05502e-05
9.88504e-05
5.05584e-05
2.37979e-05
2.38011e-05
9.89407e-05
5.05492e-05
9.88645e-05
5.05549e-05
0.000184469
0.000184504
0.000184414
0.000186372
0.000186275
0.000186315
0.00018623
0.000140326
0.000102232
0.000193636
0.000188233
0.000140092
0.000102328
0.000193979
2.37952e-05
2.37983e-05
0.000140317
0.00019365
0.000102235
0.000188246
0.000140094
0.000193997
0.000102335
7.74608e-05
7.74573e-05
0.000173353
7.74968e-05
7.74913e-05
9.90672e-05
5.05664e-05
9.90041e-05
5.05741e-05
2.38041e-05
2.38071e-05
9.90836e-05
5.05633e-05
9.90171e-05
5.05702e-05
0.000186959
0.000187002
0.000186898
0.000188757
0.000188625
0.000188673
0.000188575
0.000140762
0.000102427
0.00019558
0.000189726
0.000140553
0.00010251
0.000195867
2.38011e-05
2.38042e-05
0.000140738
0.0001956
0.000102433
0.000189745
0.000140534
0.000195887
0.000102522
7.7546e-05
7.75393e-05
0.000174455
7.75788e-05
7.75703e-05
9.91842e-05
5.05813e-05
9.91257e-05
5.05867e-05
2.38099e-05
2.38128e-05
9.92118e-05
5.05781e-05
9.91477e-05
5.05843e-05
0.000189249
0.000189298
0.000189184
0.000190936
0.00019077
0.000190824
0.000190716
0.000141175
0.000102601
0.000197357
0.000191077
0.000140992
0.000102672
0.000197591
2.3807e-05
2.381e-05
0.0001411
0.000197371
0.000102612
0.000191098
0.000140925
0.000197603
0.000102693
7.76204e-05
7.76103e-05
0.000175406
7.76504e-05
7.76395e-05
9.92899e-05
5.05979e-05
9.924e-05
5.06034e-05
2.38154e-05
2.38182e-05
9.93227e-05
5.05932e-05
9.92665e-05
5.05992e-05
0.000191329
0.000191385
0.000191262
0.000192908
0.000192706
0.000192764
0.00019265
0.000141553
0.000102754
0.000198956
0.00019228
0.000141379
0.00010282
0.000199146
2.38126e-05
2.38156e-05
0.000141438
0.000198961
0.000102762
0.000192303
0.00014131
0.000199143
0.000102824
7.76855e-05
7.76727e-05
0.000176251
7.77119e-05
7.76995e-05
9.9386e-05
5.061e-05
9.93362e-05
5.0615e-05
2.38207e-05
2.38235e-05
9.94249e-05
5.06055e-05
9.93732e-05
5.0612e-05
0.000193198
0.000193256
0.00019313
0.000194667
0.000194435
0.000194492
0.000194375
0.000141903
0.000102892
0.000200394
0.000193345
0.000141748
0.000102958
0.00020054
2.3818e-05
2.38209e-05
0.000141776
0.000200377
0.000102893
0.000193364
0.000141624
0.000200519
0.000102952
7.77406e-05
7.77321e-05
0.000176972
7.77648e-05
7.77569e-05
9.94761e-05
5.06207e-05
9.94297e-05
5.0627e-05
2.38259e-05
2.38285e-05
9.95161e-05
5.06179e-05
9.94676e-05
5.0624e-05
0.000194857
0.000194913
0.000194783
0.000196213
0.000195956
0.000196009
0.000195889
0.000142189
0.000103008
0.000201657
0.000194267
0.00014209
0.000103065
0.000201761
2.38234e-05
2.38262e-05
0.000142093
0.000201631
0.000103017
0.000194285
0.000141962
0.000201735
0.000103073
7.77926e-05
7.77875e-05
0.000177606
7.78194e-05
7.78139e-05
9.95637e-05
5.06331e-05
9.95189e-05
5.06378e-05
2.38306e-05
2.38331e-05
9.95874e-05
5.06293e-05
9.95474e-05
5.06325e-05
0.000196308
0.00019636
0.000196227
0.000197541
0.00019727
0.000197318
0.000197195
0.000142471
0.000103127
0.000202746
0.000195059
0.000142372
0.000103183
0.000202811
2.38285e-05
2.38312e-05
0.000142376
0.000202721
0.000103134
0.000195075
0.000142276
0.000202787
0.000103199
7.78452e-05
7.7841e-05
0.000178177
7.78652e-05
7.78621e-05
9.96486e-05
5.06462e-05
9.96014e-05
5.06496e-05
2.38349e-05
2.38373e-05
9.96853e-05
5.06391e-05
9.96322e-05
5.06451e-05
0.000197554
0.000197603
0.000197464
0.000198651
0.000198376
0.000198419
0.00019829
0.000142669
0.000103242
0.000203668
0.000195729
0.00014261
0.000103258
0.000203695
2.38331e-05
2.38354e-05
0.000142647
0.000203651
0.000103223
0.00019574
0.00014253
0.00020368
0.000103238
7.78574e-05
7.78854e-05
0.000178649
7.78622e-05
7.78913e-05
9.97432e-05
5.06568e-05
9.97033e-05
5.06597e-05
2.38392e-05
2.38415e-05
9.97072e-05
5.06517e-05
9.96815e-05
5.06545e-05
0.000198596
0.000198638
0.000198496
0.00019955
0.000199269
0.000199307
0.000199179
0.000142931
0.000103273
0.00020443
0.000196282
0.000142802
0.000103317
0.000204417
2.38365e-05
2.38384e-05
0.000142928
0.000204421
0.000103291
0.000196286
0.000142795
0.000204411
0.000103351
7.78762e-05
7.7901e-05
0.000178987
7.78963e-05
7.79066e-05
9.97957e-05
5.06618e-05
9.97818e-05
5.06687e-05
2.38428e-05
2.38445e-05
9.97506e-05
5.06606e-05
9.9713e-05
5.06607e-05
0.000199424
0.000199463
0.000199328
0.000200238
0.000199937
0.000199979
0.000199857
0.000143137
0.000103351
0.000205028
0.000196717
0.000143093
0.000103406
0.000204996
2.38395e-05
2.38417e-05
0.000142951
0.000205033
0.000103385
0.00019673
0.000142938
0.000204997
0.000103408
7.793e-05
7.79102e-05
0.000179294
7.79461e-05
7.79249e-05
9.97823e-05
5.06674e-05
9.97597e-05
5.06734e-05
2.3845e-05
2.38465e-05
9.98022e-05
5.06681e-05
9.97799e-05
5.06694e-05