/*--------------------------------*- C++ -*----------------------------------*\
| =========                 |                                                 |
| \\      /  F ield         | OpenFOAM: The Open Source CFD Toolbox           |
|  \\    /   O peration     | Version:  v2012                                 |
|   \\  /    A nd           | Website:  www.openfoam.com                      |
|    \\/     M anipulation  |                                                 |
\*---------------------------------------------------------------------------*/
FoamFile
{
    version     2.0;
    format      ascii;
    class       volScalarField;
    location    "300";
    object      p;
}
// * * * * * * * * * * * * * * * * * * * * * * * * * * * * * * * * * * * * * //

dimensions      [0 2 -2 0 0 0 0];


internalField   nonuniform List<scalar> 
85864
(
0.00167403
0.00167395
0.00167553
0.00167395
0.00167395
0.00167395
0.00167553
0.00167597
0.00167597
0.00167597
0.00167403
0.00167597
0.00167593
0.00167597
0.00167597
0.00167598
0.00167598
0.00167593
0.00167593
0.001674
0.00167591
0.00167597
0.00167597
0.001674
0.00167593
0.00167591
0.00167598
0.00167598
0.00167597
0.00167597
0.00167162
0.00167598
0.00167598
0.00167161
0.00167162
0.00167598
0.00167161
0.00167598
0.00167161
0.00167164
0.00167597
0.00167598
0.00167163
0.00167161
0.00167598
0.00167161
0.00167161
0.00167161
0.00167166
0.00167594
0.00167162
0.00167597
0.00167162
0.00167171
0.00167596
0.00167166
0.00167594
0.00167162
0.00167597
0.00167162
0.00167171
0.00167596
0.0016716
0.00167598
0.00167598
0.0016716
0.0016716
0.00167599
0.00167161
0.00167162
0.00167598
0.00167161
0.00167598
0.00167161
0.00167164
0.00167598
0.00167597
0.00167161
0.00167163
0.00167598
0.00167166
0.00167594
0.00167162
0.00167597
0.00167162
0.00167171
0.00167596
0.00167166
0.00167594
0.00167162
0.00167597
0.00167171
0.00167162
0.00167596
0.0016716
0.00167598
0.00167598
0.0016716
0.0016716
0.00167599
0.00167161
0.00167162
0.00167405
0.00167181
0.00167573
0.00167573
0.00167231
0.001672
0.001672
0.00167587
0.00167181
0.00167573
0.00167573
0.00167231
0.001672
0.001672
0.00167587
0.00167405
0.00167198
0.0016758
0.00167169
0.00167592
0.00167185
0.00167174
0.00167574
0.00167198
0.0016758
0.00167169
0.00167592
0.00167174
0.00167185
0.00167574
0.00167198
0.0016758
0.00167169
0.00167592
0.00167174
0.00167185
0.00167574
0.00167202
0.00167178
0.00167591
0.00167573
0.00167176
0.00167203
0.00167571
0.00167198
0.0016758
0.00167169
0.00167592
0.00167174
0.00167185
0.00167574
0.00167202
0.00167178
0.00167573
0.00167591
0.00167203
0.00167176
0.00167571
0.00167395
0.00167553
0.00163821
0.00163813
0.00163813
0.0016397
0.00160246
0.00160238
0.00160238
0.00160395
0.00156677
0.00156669
0.00156669
0.00156825
0.00153114
0.00153105
0.00153105
0.00153262
0.00149556
0.00149547
0.00149547
0.00149703
0.00146002
0.00145993
0.00145993
0.00146149
0.00142452
0.00142442
0.00142442
0.00142598
0.00138904
0.00138894
0.00138894
0.00139051
0.00135358
0.00135348
0.00135348
0.00135504
0.00131812
0.00131803
0.00131802
0.00131959
0.00128267
0.00128257
0.00128256
0.00128413
0.0012472
0.0012471
0.00124709
0.00124866
0.00121171
0.00121161
0.00121161
0.00121318
0.00117621
0.0011761
0.0011761
0.00117767
0.00114068
0.00114058
0.00114058
0.00114216
0.00110514
0.00110506
0.00110506
0.00110663
0.00106961
0.00106953
0.00106953
0.00107111
0.00103409
0.00103402
0.00103402
0.0010356
0.000998593
0.000998528
0.000998527
0.0010001
0.000963114
0.000963054
0.000963052
0.000964631
0.000927652
0.000927598
0.000927596
0.000929177
0.000892199
0.00089215
0.00089215
0.000893731
0.000856744
0.0008567
0.0008567
0.000858283
0.000821272
0.000821233
0.000821232
0.000822819
0.000785768
0.000785734
0.000785735
0.000787325
0.000750221
0.000750192
0.000750191
0.000751786
0.000714619
0.000714595
0.000714595
0.000716193
0.000678954
0.000678934
0.000678934
0.00068054
0.000643225
0.00064321
0.00064321
0.00064482
0.00060744
0.000607427
0.000607429
0.00060904
0.000571611
0.000571597
0.000571598
0.000573214
0.000535753
0.000535739
0.00053574
0.000537356
0.000499883
0.000499869
0.000499868
0.000501487
0.000464009
0.000463992
0.000463992
0.000465611
0.00042813
0.000428116
0.000428116
0.000429734
0.000392249
0.000392235
0.000392233
0.000393853
0.000356363
0.000356349
0.000356348
0.000357965
0.000320476
0.000320462
0.000320464
0.000322082
0.000284589
0.000284575
0.000284576
0.000286191
0.000248696
0.000248682
0.000248681
0.000250297
0.000212799
0.000212788
0.000212786
0.000214401
0.000176903
0.000176894
0.000176893
0.000178504
0.000141004
0.000140996
0.000140996
0.000142598
0.000105098
0.000105093
0.000105094
0.000106677
6.91942e-05
6.91838e-05
6.91831e-05
7.07123e-05
3.38808e-05
3.34349e-05
3.34317e-05
3.4662e-05
6.83214e-06
7.82208e-06
7.81948e-06
5.78211e-06
0.00164544
0.00167395
0.00164708
0.00164708
0.00167552
0.00164544
0.00164708
0.00164708
0.00167395
0.00164708
0.00164708
0.00164544
0.00167395
0.00164708
0.00164708
0.00164544
0.0016397
0.00160967
0.00163813
0.00163813
0.00161131
0.00161131
0.0016397
0.00160967
0.00163813
0.00163813
0.00161131
0.00161131
0.00163813
0.00161131
0.00161131
0.0016397
0.00160967
0.00163813
0.00161131
0.00161131
0.00160967
0.00160395
0.00157397
0.00160238
0.00160238
0.0015756
0.0015756
0.00160394
0.00157397
0.00160238
0.00160238
0.0015756
0.0015756
0.00160238
0.0015756
0.0015756
0.00160395
0.00157397
0.00160238
0.0015756
0.0015756
0.00157397
0.00156825
0.00153832
0.00156669
0.00156669
0.00153996
0.00153996
0.00156825
0.00153832
0.00156669
0.00156669
0.00153996
0.00153996
0.00156669
0.00153996
0.00153996
0.00156825
0.00153832
0.00156669
0.00153996
0.00153996
0.00153832
0.00153262
0.00150273
0.00153105
0.00153105
0.00150436
0.00150436
0.00153262
0.00150273
0.00153105
0.00153105
0.00150436
0.00150436
0.00153105
0.00150436
0.00150436
0.00153262
0.00150273
0.00153105
0.00150436
0.00150436
0.00150273
0.00149703
0.00146718
0.00149547
0.00149547
0.00146881
0.00146881
0.00149703
0.00146718
0.00149547
0.00149547
0.00146881
0.00146881
0.00149547
0.00146881
0.00146881
0.00149703
0.00146718
0.00149547
0.00146881
0.00146881
0.00146718
0.00146149
0.00143167
0.00145993
0.00145993
0.0014333
0.0014333
0.00146149
0.00143167
0.00145993
0.00145993
0.0014333
0.0014333
0.00145993
0.0014333
0.0014333
0.00146149
0.00143167
0.00145993
0.0014333
0.0014333
0.00143167
0.00142598
0.00139618
0.00142442
0.00142442
0.00139781
0.00139781
0.00142598
0.00139618
0.00142442
0.00142442
0.00139781
0.00139781
0.00142442
0.00139781
0.00139781
0.00142598
0.00139618
0.00142442
0.00139781
0.00139781
0.00139618
0.0013905
0.00136072
0.00138894
0.00138894
0.00136235
0.00136235
0.0013905
0.00136072
0.00138894
0.00138894
0.00136235
0.00136235
0.00138894
0.00136235
0.00136235
0.0013905
0.00136072
0.00138894
0.00136235
0.00136235
0.00136072
0.00135504
0.00132526
0.00135348
0.00135348
0.00132689
0.00132689
0.00135504
0.00132526
0.00135348
0.00135348
0.00132689
0.00132689
0.00135348
0.00132689
0.00132689
0.00135504
0.00132526
0.00135348
0.00132689
0.00132689
0.00132526
0.00131959
0.00128981
0.00131803
0.00131803
0.00129143
0.00129143
0.00131959
0.00128981
0.00131802
0.00131802
0.00129143
0.00129143
0.00131803
0.00129143
0.00129143
0.00131959
0.00128981
0.00131803
0.00129143
0.00129143
0.00128981
0.00128413
0.00125434
0.00128257
0.00128257
0.00125596
0.00125596
0.00128413
0.00125434
0.00128257
0.00128257
0.00125596
0.00125596
0.00128257
0.00125596
0.00125596
0.00128413
0.00125434
0.00128257
0.00125596
0.00125596
0.00125434
0.00124866
0.00121886
0.00124709
0.0012471
0.00122048
0.00122048
0.00124866
0.00121886
0.00124709
0.00124709
0.00122048
0.00122048
0.00124709
0.00122048
0.00122048
0.00124866
0.00121886
0.00124709
0.00122048
0.00122048
0.00121886
0.00121317
0.00118335
0.00121161
0.00121161
0.00118498
0.00118498
0.00121317
0.00118335
0.00121161
0.00121161
0.00118498
0.00118498
0.00121161
0.00118498
0.00118498
0.00121318
0.00118335
0.0012116
0.00118498
0.00118498
0.00118335
0.00117767
0.00114784
0.0011761
0.0011761
0.00114946
0.00114946
0.00117767
0.00114784
0.0011761
0.0011761
0.00114946
0.00114946
0.0011761
0.00114946
0.00114946
0.00117767
0.00114784
0.0011761
0.00114946
0.00114946
0.00114784
0.00114216
0.00111232
0.00114058
0.00114058
0.00111394
0.00111394
0.00114215
0.00111232
0.00114058
0.00114058
0.00111394
0.00111394
0.00114058
0.00111394
0.00111394
0.00114216
0.00111232
0.00114058
0.00111394
0.00111394
0.00111232
0.00110663
0.00107679
0.00110506
0.00110506
0.00107841
0.00107841
0.00110663
0.00107679
0.00110506
0.00110506
0.00107841
0.00107842
0.00110506
0.00107841
0.00107841
0.00110663
0.00107679
0.00110506
0.00107841
0.00107841
0.00107679
0.00107111
0.00104128
0.00106953
0.00106953
0.0010429
0.0010429
0.00107111
0.00104128
0.00106953
0.00106953
0.0010429
0.0010429
0.00106953
0.0010429
0.0010429
0.00107111
0.00104128
0.00106953
0.0010429
0.0010429
0.00104128
0.0010356
0.00100578
0.00103402
0.00103402
0.0010074
0.0010074
0.0010356
0.00100578
0.00103402
0.00103402
0.0010074
0.0010074
0.00103402
0.0010074
0.0010074
0.0010356
0.00100578
0.00103402
0.0010074
0.0010074
0.00100578
0.0010001
0.000970302
0.000998526
0.000998527
0.000971918
0.00097192
0.0010001
0.000970304
0.000998526
0.000998527
0.000971917
0.000971918
0.000998529
0.00097192
0.00097192
0.0010001
0.000970302
0.000998529
0.000971919
0.00097192
0.000970305
0.000964628
0.000934845
0.000963052
0.000963054
0.000936458
0.000936459
0.000964631
0.000934847
0.000963051
0.000963052
0.000936458
0.000936458
0.000963054
0.00093646
0.00093646
0.000964629
0.000934845
0.000963054
0.000936459
0.00093646
0.000934847
0.000929174
0.000899399
0.000927596
0.000927598
0.00090101
0.000901011
0.000929176
0.0008994
0.000927596
0.000927596
0.00090101
0.00090101
0.000927598
0.000901011
0.000901011
0.000929174
0.000899399
0.000927598
0.00090101
0.000901011
0.000899399
0.000893729
0.000863952
0.00089215
0.000892151
0.000865562
0.000865563
0.00089373
0.000863953
0.00089215
0.00089215
0.000865562
0.000865562
0.00089215
0.000865563
0.000865562
0.00089373
0.000863952
0.00089215
0.000865562
0.000865563
0.000863952
0.000858282
0.000828491
0.000856699
0.000856701
0.000830101
0.000830101
0.000858282
0.000828492
0.000856699
0.0008567
0.0008301
0.000830101
0.0008567
0.000830101
0.0008301
0.000858282
0.000828491
0.0008567
0.0008301
0.0008301
0.000828491
0.000822819
0.000793003
0.000821233
0.000821233
0.000794612
0.000794612
0.000822818
0.000793003
0.000821233
0.000821233
0.000794611
0.000794613
0.000821233
0.000794611
0.000794613
0.000822818
0.000793003
0.000821233
0.000794612
0.000794612
0.000793003
0.000787324
0.000757472
0.000785735
0.000785735
0.000759081
0.000759081
0.000787323
0.000757472
0.000785735
0.000785736
0.000759081
0.000759082
0.000785736
0.000759081
0.000759081
0.000787325
0.000757472
0.000785735
0.000759081
0.000759081
0.000757471
0.000751786
0.000721888
0.000750191
0.000750193
0.000723498
0.000723499
0.000751786
0.000721889
0.000750192
0.000750193
0.000723498
0.000723497
0.000750191
0.000723499
0.000723497
0.000751786
0.000721887
0.000750192
0.000723497
0.000723498
0.000721887
0.000716194
0.000686242
0.000714595
0.000714596
0.000687853
0.000687854
0.000716194
0.000686242
0.000714594
0.000714593
0.000687853
0.000687854
0.000714595
0.000687853
0.000687856
0.000716192
0.000686242
0.000714595
0.000687853
0.000687854
0.000686244
0.000680538
0.00065053
0.000678933
0.000678934
0.000652143
0.000652143
0.000680537
0.000650532
0.000678933
0.000678935
0.000652143
0.000652146
0.000678936
0.000652145
0.000652146
0.000680538
0.000650533
0.000678935
0.000652145
0.000652147
0.000650534
0.000644816
0.000614759
0.000643207
0.000643208
0.000616373
0.000616375
0.000644817
0.000614761
0.000643207
0.00064321
0.000616373
0.000616375
0.00064321
0.000616375
0.000616374
0.000644818
0.000614762
0.000643213
0.000616376
0.000616376
0.000614762
0.000609037
0.000578941
0.000607425
0.000607427
0.000580554
0.000580556
0.000609038
0.000578942
0.000607425
0.000607427
0.000580556
0.000580557
0.000607426
0.000580556
0.000580558
0.000609041
0.000578943
0.000607428
0.000580557
0.000580557
0.000578943
0.000573211
0.000543088
0.000571595
0.000571597
0.000544703
0.000544704
0.000573212
0.000543089
0.000571597
0.000571598
0.000544703
0.000544705
0.000571599
0.000544703
0.000544704
0.000573214
0.00054309
0.000571598
0.000544704
0.000544705
0.000543089
0.000537355
0.00050722
0.000535738
0.000535739
0.000508836
0.000508835
0.000537355
0.000507221
0.000535738
0.000535741
0.000508834
0.000508836
0.00053574
0.000508836
0.000508837
0.000537357
0.000507221
0.00053574
0.000508835
0.000508835
0.000507221
0.000501486
0.000471347
0.000499869
0.000499869
0.000472963
0.000472961
0.000501486
0.000471346
0.000499868
0.000499869
0.000472961
0.000472962
0.00049987
0.00047296
0.000472961
0.000501487
0.000471346
0.000499869
0.00047296
0.00047296
0.000471345
0.000465613
0.00043547
0.000463995
0.000463993
0.000437085
0.000437086
0.000465611
0.00043547
0.000463994
0.000463995
0.000437085
0.000437086
0.000463993
0.000437084
0.000437085
0.000465611
0.00043547
0.000463992
0.000437084
0.000437083
0.000435468
0.000429735
0.00039959
0.000428117
0.000428117
0.000401204
0.000401205
0.000429734
0.00039959
0.000428117
0.000428117
0.000401205
0.000401205
0.000428117
0.000401204
0.000401204
0.000429734
0.000399588
0.000428115
0.000401203
0.000401204
0.000399588
0.000393854
0.000363704
0.000392235
0.000392236
0.000365319
0.00036532
0.000393854
0.000363705
0.000392235
0.000392235
0.000365319
0.000365318
0.000392234
0.000365319
0.000365317
0.000393852
0.000363702
0.000392234
0.000365317
0.000365317
0.000363701
0.000357969
0.000327817
0.00035635
0.00035635
0.000329431
0.000329433
0.000357967
0.000327817
0.00035635
0.000356349
0.000329433
0.000329434
0.000356348
0.000329432
0.000329433
0.000357965
0.000327819
0.000356348
0.000329433
0.000329433
0.000327818
0.00032208
0.000291929
0.000320462
0.000320463
0.000293544
0.000293544
0.000322079
0.00029193
0.000320463
0.000320465
0.000293545
0.000293545
0.000320464
0.000293545
0.000293543
0.000322082
0.000291931
0.000320464
0.000293545
0.000293544
0.000291928
0.000286192
0.000256039
0.000284575
0.000284575
0.000257652
0.000257652
0.000286191
0.000256037
0.000284575
0.000284576
0.000257652
0.000257651
0.000284574
0.000257651
0.00025765
0.000286193
0.000256037
0.000284574
0.000257651
0.000257649
0.000256036
0.0002503
0.000220143
0.000248683
0.000248683
0.000221756
0.000221757
0.000250298
0.000220144
0.000248682
0.000248681
0.000221755
0.000221755
0.00024868
0.000221757
0.000221755
0.000250297
0.000220141
0.00024868
0.000221754
0.000221754
0.000220141
0.000214402
0.000184248
0.000212788
0.000212788
0.000185859
0.000185859
0.000214402
0.000184248
0.000212787
0.000212787
0.000185859
0.000185859
0.000212787
0.00018586
0.00018586
0.000214401
0.000184247
0.000212787
0.000185858
0.000185859
0.000184248
0.000178503
0.000148351
0.000176894
0.000176893
0.00014996
0.00014996
0.000178503
0.000148352
0.000176893
0.000176893
0.00014996
0.00014996
0.000176893
0.00014996
0.000149959
0.000178503
0.000148351
0.000176893
0.000149959
0.000149959
0.000148351
0.000142599
0.000112451
0.000140997
0.000140997
0.000114053
0.000114052
0.000142598
0.000112449
0.000140997
0.000140997
0.000114054
0.000114053
0.000140996
0.000114052
0.000114052
0.000142598
0.00011245
0.000140997
0.000114053
0.000114052
0.000112449
0.000106679
7.65377e-05
0.000105094
0.000105093
7.81328e-05
7.81336e-05
0.000106676
7.65379e-05
0.000105095
0.000105095
7.81342e-05
7.81333e-05
0.000105094
7.81327e-05
7.81322e-05
0.000106677
7.65377e-05
0.000105094
7.81326e-05
7.81319e-05
7.65359e-05
7.0714e-05
4.06389e-05
6.91844e-05
6.91851e-05
4.22591e-05
4.22597e-05
7.07134e-05
4.06416e-05
6.91851e-05
6.9183e-05
4.22571e-05
4.22553e-05
6.91832e-05
4.2259e-05
4.22564e-05
7.07136e-05
4.06362e-05
6.91833e-05
4.22558e-05
4.22552e-05
4.0637e-05
3.46653e-05
8.5592e-06
3.34364e-05
3.34367e-05
1.09943e-05
1.0994e-05
3.46656e-05
8.55882e-06
3.34338e-05
3.34316e-05
1.0995e-05
1.09864e-05
3.34321e-05
1.09927e-05
1.0985e-05
3.46619e-05
8.55377e-06
3.34312e-05
1.09882e-05
1.09892e-05
8.55337e-06
5.78614e-06
7.82166e-06
7.82321e-06
5.7843e-06
7.82099e-06
7.81784e-06
6.83231e-06
6.82965e-06
6.83031e-06
7.81656e-06
5.78082e-06
7.81864e-06
0.00166268
0.00166266
0.00167597
0.00167597
0.00166265
0.00166268
0.00166266
0.00167403
0.00167403
0.00164716
0.00164716
0.00164716
0.00164716
0.00166282
0.00167593
0.001674
0.00166499
0.00166273
0.00166504
0.00167591
0.00166265
0.00166282
0.001674
0.00166499
0.00166504
0.00166273
0.00167591
0.00167598
0.00167598
0.00166334
0.00166266
0.00166266
0.00162688
0.00164015
0.00164015
0.00162686
0.00164015
0.00162686
0.00162688
0.00164015
0.00164015
0.00162686
0.00163821
0.00163821
0.00163821
0.00161139
0.00161139
0.00161139
0.00161139
0.00162702
0.00164012
0.00163818
0.00162919
0.00164009
0.00162693
0.00162923
0.00164015
0.00162686
0.00162702
0.00163818
0.00164012
0.00162919
0.00164009
0.00162923
0.00162693
0.00164016
0.00164016
0.00162754
0.00162687
0.00162687
0.00159115
0.0016044
0.0016044
0.00159114
0.0016044
0.00159113
0.00159115
0.0016044
0.0016044
0.00159114
0.00160246
0.00160246
0.00160246
0.00157569
0.00157569
0.00157569
0.00157569
0.00159129
0.00160436
0.00160242
0.00159345
0.00160434
0.0015912
0.0015935
0.0016044
0.00159113
0.00159129
0.00160242
0.00160436
0.00159345
0.00160434
0.0015935
0.0015912
0.00160441
0.00160441
0.00159181
0.00159114
0.00159114
0.00155549
0.00156871
0.00156871
0.00155547
0.00156872
0.00155546
0.00155549
0.00156871
0.00156871
0.00155547
0.00156677
0.00156677
0.00156677
0.00154005
0.00154005
0.00154005
0.00154005
0.00155562
0.00156868
0.00156673
0.00155777
0.00156865
0.00155553
0.00155782
0.00156872
0.00155546
0.00155562
0.00156673
0.00156868
0.00155777
0.00156865
0.00155782
0.00155553
0.00156872
0.00156872
0.00155614
0.00155547
0.00155547
0.00151987
0.00153308
0.00153308
0.00151986
0.00153309
0.00151985
0.00151987
0.00153308
0.00153308
0.00151986
0.00153114
0.00153114
0.00153114
0.00150445
0.00150445
0.00150445
0.00150445
0.00152
0.00153305
0.0015311
0.00152215
0.00153302
0.00151992
0.0015222
0.00153309
0.00151985
0.00152
0.0015311
0.00153305
0.00152215
0.00153302
0.0015222
0.00151992
0.00153309
0.00153309
0.00152052
0.00151986
0.00151986
0.00148431
0.0014975
0.0014975
0.00148429
0.00149751
0.00148429
0.00148431
0.0014975
0.0014975
0.00148429
0.00149556
0.00149556
0.00149556
0.0014689
0.0014689
0.0014689
0.0014689
0.00148443
0.00149747
0.00149551
0.00148658
0.00149744
0.00148435
0.00148663
0.00149751
0.00148429
0.00148443
0.00149552
0.00149746
0.00148658
0.00149744
0.00148663
0.00148435
0.00149751
0.00149751
0.00148495
0.0014843
0.0014843
0.00144878
0.00146196
0.00146196
0.00144877
0.00146197
0.00144876
0.00144878
0.00146196
0.00146196
0.00144877
0.00146002
0.00146002
0.00146002
0.00143339
0.00143339
0.00143339
0.00143339
0.00144891
0.00146193
0.00145997
0.00145105
0.0014619
0.00144883
0.0014511
0.00146197
0.00144877
0.00144891
0.00145997
0.00146193
0.00145105
0.0014619
0.0014511
0.00144883
0.00146197
0.00146197
0.00144942
0.00144877
0.00144877
0.00141329
0.00142646
0.00142646
0.00141328
0.00142648
0.00141328
0.00141329
0.00142646
0.00142646
0.00141328
0.00142452
0.00142452
0.00142452
0.00139791
0.00139791
0.00139791
0.00139791
0.00141341
0.00142643
0.00142447
0.00141555
0.0014264
0.00141334
0.0014156
0.00142647
0.00141328
0.00141341
0.00142447
0.00142643
0.00141555
0.0014264
0.0014156
0.00141334
0.00142647
0.00142647
0.00141392
0.00141328
0.00141328
0.00137782
0.00139099
0.00139099
0.00137781
0.00139099
0.00137781
0.00137782
0.00139099
0.00139099
0.00137781
0.00138904
0.00138904
0.00138904
0.00136244
0.00136244
0.00136244
0.00136244
0.00137794
0.00139095
0.00138899
0.00138008
0.00139092
0.00137787
0.00138012
0.00139099
0.00137781
0.00137794
0.00138899
0.00139095
0.00138008
0.00139092
0.00138012
0.00137787
0.00139099
0.00139099
0.00137845
0.00137781
0.00137781
0.00134237
0.00135553
0.00135553
0.00134236
0.00135554
0.00134235
0.00134237
0.00135553
0.00135553
0.00134236
0.00135358
0.00135358
0.00135358
0.00132699
0.00132699
0.00132699
0.00132699
0.00134249
0.00135549
0.00135353
0.00134462
0.00135546
0.00134241
0.00134466
0.00135554
0.00134235
0.00134248
0.00135353
0.00135549
0.00134462
0.00135546
0.00134466
0.00134241
0.00135554
0.00135554
0.00134299
0.00134236
0.00134236
0.00130692
0.00132008
0.00132008
0.00130691
0.00132009
0.0013069
0.00130692
0.00132008
0.00132008
0.00130691
0.00131812
0.00131812
0.00131812
0.00129153
0.00129153
0.00129153
0.00129153
0.00130703
0.00132004
0.00131807
0.00130916
0.00132001
0.00130696
0.00130921
0.00132009
0.0013069
0.00130703
0.00131807
0.00132004
0.00130916
0.00132001
0.00130921
0.00130696
0.00132009
0.00132009
0.00130754
0.00130691
0.00130691
0.00127146
0.00128463
0.00128463
0.00127145
0.00128463
0.00127145
0.00127146
0.00128463
0.00128463
0.00127145
0.00128267
0.00128266
0.00128267
0.00125606
0.00125606
0.00125606
0.00125606
0.00127158
0.00128459
0.00128261
0.0012737
0.00128456
0.00127151
0.00127375
0.00128463
0.00127145
0.00127157
0.00128261
0.00128459
0.0012737
0.00128456
0.00127374
0.0012715
0.00128463
0.00128463
0.00127207
0.00127145
0.00127145
0.00123599
0.00124917
0.00124916
0.00123598
0.00124917
0.00123598
0.00123599
0.00124917
0.00124916
0.00123598
0.0012472
0.0012472
0.0012472
0.00122058
0.00122058
0.00122058
0.00122058
0.0012361
0.00124913
0.00124714
0.00123822
0.0012491
0.00123603
0.00123827
0.00124917
0.00123598
0.0012361
0.00124714
0.00124913
0.00123822
0.0012491
0.00123827
0.00123603
0.00124917
0.00124917
0.0012366
0.00123598
0.00123598
0.00120051
0.00121369
0.00121368
0.00120049
0.00121369
0.00120049
0.00120051
0.00121369
0.00121368
0.0012005
0.00121171
0.00121171
0.00121171
0.00118508
0.00118508
0.00118508
0.00118508
0.00120061
0.00121365
0.00121165
0.00120273
0.00121361
0.00120055
0.00120277
0.00121369
0.00120049
0.00120061
0.00121165
0.00121365
0.00120273
0.00121361
0.00120277
0.00120055
0.00121369
0.00121369
0.00120111
0.00120049
0.00120049
0.001165
0.00117819
0.00117819
0.00116499
0.00117819
0.00116499
0.001165
0.00117819
0.00117819
0.00116499
0.0011762
0.00117621
0.0011762
0.00114956
0.00114956
0.00114956
0.00114956
0.00116511
0.00117815
0.00117614
0.00116722
0.00117811
0.00116504
0.00116726
0.00117819
0.00116499
0.00116511
0.00117614
0.00117815
0.00116722
0.00117812
0.00116726
0.00116504
0.00117819
0.00117819
0.0011656
0.00116499
0.00116499
0.00112949
0.00114268
0.00114267
0.00112948
0.00114268
0.00112947
0.00112949
0.00114268
0.00114268
0.00112948
0.00114068
0.00114068
0.00114067
0.00111403
0.00111403
0.00111403
0.00111403
0.00112959
0.00114264
0.00114062
0.0011317
0.0011426
0.00112953
0.00113173
0.00114268
0.00112947
0.00112959
0.00114062
0.00114264
0.0011317
0.0011426
0.00113174
0.00112953
0.00114268
0.00114268
0.00113008
0.00112948
0.00112948
0.00109397
0.00110716
0.00110716
0.00109396
0.00110716
0.00109395
0.00109397
0.00110716
0.00110716
0.00109396
0.00110514
0.00110514
0.00110514
0.0010785
0.0010785
0.0010785
0.0010785
0.00109406
0.00110712
0.00110509
0.00109618
0.00110708
0.001094
0.00109621
0.00110717
0.00109396
0.00109407
0.00110509
0.00110712
0.00109618
0.00110708
0.00109621
0.00109401
0.00110716
0.00110716
0.00109455
0.00109395
0.00109396
0.00105845
0.00107164
0.00107164
0.00105844
0.00107165
0.00105844
0.00105845
0.00107164
0.00107164
0.00105844
0.00106961
0.00106962
0.00106961
0.00104297
0.00104297
0.00104297
0.00104297
0.00105855
0.0010716
0.00106956
0.00106065
0.00107156
0.00105849
0.00106068
0.00107165
0.00105844
0.00105855
0.00106956
0.0010716
0.00106065
0.00107156
0.00106068
0.00105849
0.00107165
0.00107165
0.00105903
0.00105844
0.00105844
0.00102295
0.00103614
0.00103613
0.00102294
0.00103614
0.00102294
0.00102295
0.00103614
0.00103613
0.00102294
0.00103409
0.0010341
0.00103409
0.00100747
0.00100747
0.00100747
0.00100747
0.00102304
0.0010361
0.00103405
0.00102515
0.00103606
0.00102299
0.00102517
0.00103614
0.00102294
0.00102304
0.00103405
0.0010361
0.00102515
0.00103605
0.00102517
0.00102299
0.00103614
0.00103614
0.00102353
0.00102294
0.00102294
0.000987466
0.00100065
0.00100064
0.000987459
0.00100065
0.000987457
0.000987463
0.00100065
0.00100064
0.000987458
0.000998594
0.000998594
0.000998595
0.000971982
0.000971984
0.000971983
0.000971984
0.000987559
0.0010006
0.000998553
0.000989657
0.00100056
0.000987504
0.000989682
0.00100065
0.000987455
0.00098756
0.000998552
0.0010006
0.000989657
0.00100056
0.000989681
0.000987503
0.00100065
0.00100065
0.00098804
0.000987457
0.000987457
0.000952003
0.000965177
0.000965171
0.000951997
0.000965183
0.000951995
0.000951999
0.000965175
0.000965168
0.000951995
0.000963115
0.000963114
0.000963115
0.000936517
0.000936518
0.000936517
0.000936518
0.000952094
0.000965134
0.000963078
0.000954189
0.000965091
0.000952042
0.000954212
0.000965181
0.000951993
0.000952095
0.000963076
0.000965134
0.000954187
0.000965092
0.00095421
0.00095204
0.000965181
0.000965181
0.000952573
0.000951994
0.000951994
0.000916555
0.000929726
0.000929719
0.00091655
0.000929732
0.000916549
0.000916553
0.000929724
0.000929718
0.00091655
0.000927653
0.000927652
0.000927653
0.000901063
0.000901064
0.000901063
0.000901063
0.000916646
0.000929683
0.000927619
0.000918735
0.000929639
0.000916594
0.000918756
0.00092973
0.000916548
0.000916644
0.000927618
0.000929682
0.000918734
0.000929638
0.000918754
0.000916592
0.000929729
0.000929729
0.000917123
0.000916547
0.000916546
0.000881114
0.000894285
0.000894277
0.00088111
0.000894291
0.000881108
0.000881112
0.000894284
0.000894276
0.00088111
0.0008922
0.0008922
0.0008922
0.00086561
0.00086561
0.000865609
0.000865609
0.000881201
0.000894241
0.00089217
0.000883289
0.000894196
0.000881151
0.000883308
0.000894289
0.000881105
0.0008812
0.000892168
0.00089424
0.000883288
0.000894195
0.000883307
0.000881149
0.000894287
0.000894286
0.000881677
0.000881105
0.000881104
0.000845663
0.00085884
0.000858832
0.00084566
0.000858846
0.000845657
0.000845662
0.000858838
0.000858831
0.000845659
0.000856745
0.000856744
0.000856744
0.000830143
0.000830143
0.000830143
0.000830142
0.00084575
0.000858795
0.000856718
0.000847835
0.000858749
0.000845701
0.000847852
0.000858843
0.000845655
0.00084575
0.000856717
0.000858793
0.000847834
0.000858747
0.000847851
0.000845699
0.000858841
0.00085884
0.000846224
0.000845654
0.000845654
0.00081019
0.000823376
0.000823369
0.000810187
0.000823383
0.000810185
0.000810192
0.000823377
0.00082337
0.000810189
0.000821272
0.000821272
0.000821271
0.000794649
0.000794649
0.000794649
0.000794649
0.000810278
0.000823333
0.000821248
0.000812361
0.000823287
0.00081023
0.000812376
0.000823383
0.000810186
0.000810278
0.000821247
0.000823332
0.000812361
0.000823286
0.000812376
0.000810228
0.000823378
0.000823378
0.000810751
0.000810182
0.000810182
0.000774684
0.000787884
0.000787877
0.000774679
0.00078789
0.000774677
0.000774685
0.000787886
0.000787879
0.000774681
0.000785769
0.000785769
0.000785768
0.000759113
0.000759114
0.000759114
0.000759113
0.000774771
0.000787841
0.000785748
0.000776854
0.000787795
0.000774722
0.000776866
0.000787891
0.000774678
0.000774771
0.000785748
0.000787841
0.000776854
0.000787795
0.000776867
0.000774721
0.000787885
0.000787886
0.000775243
0.000774676
0.000774676
0.000739129
0.00075235
0.000752341
0.000739126
0.000752354
0.00073912
0.00073913
0.000752349
0.000752342
0.000739125
0.000750221
0.000750221
0.00075022
0.000723526
0.000723527
0.000723526
0.000723526
0.000739215
0.000752304
0.000750204
0.000741298
0.000752259
0.000739167
0.000741309
0.000752353
0.000739123
0.000739216
0.000750204
0.000752306
0.000741297
0.000752258
0.000741309
0.000739167
0.000752353
0.000752351
0.000739686
0.000739123
0.000739121
0.000703514
0.000716756
0.00071675
0.000703511
0.000716761
0.000703506
0.000703514
0.000716757
0.000716751
0.000703509
0.00071462
0.000714619
0.000714619
0.000687877
0.000687878
0.000687878
0.000687879
0.000703602
0.000716713
0.000714605
0.000705686
0.000716668
0.000703553
0.000705695
0.000716763
0.000703507
0.000703601
0.000714604
0.000716713
0.000705686
0.000716666
0.000705694
0.00070355
0.00071676
0.000716759
0.000704074
0.000703505
0.000703508
0.000667838
0.000681102
0.000681096
0.000667831
0.000681107
0.000667829
0.000667833
0.000681101
0.000681094
0.000667831
0.000678955
0.000678955
0.000678956
0.000652163
0.000652165
0.000652166
0.000652167
0.000667923
0.000681061
0.000678943
0.000670009
0.000681014
0.000667875
0.000670017
0.000681105
0.000667827
0.000667924
0.000678942
0.000681061
0.000670009
0.000681013
0.000670017
0.000667873
0.000681106
0.000681107
0.000668397
0.000667829
0.00066783
0.000632092
0.00064538
0.000645377
0.000632087
0.000645388
0.000632085
0.000632095
0.000645381
0.000645379
0.000632088
0.000643227
0.000643227
0.000643228
0.000616392
0.000616394
0.000616394
0.000616395
0.000632182
0.00064534
0.000643216
0.000634269
0.000645294
0.000632131
0.000634275
0.000645388
0.000632086
0.000632184
0.000643219
0.000645341
0.000634269
0.000645296
0.000634277
0.000632134
0.000645389
0.000645387
0.000632654
0.000632089
0.000632088
0.000596296
0.000609604
0.000609598
0.000596292
0.000609608
0.000596287
0.000596296
0.000609603
0.000609599
0.000596291
0.000607442
0.000607443
0.000607442
0.000580573
0.000580573
0.000580574
0.000580575
0.000596385
0.000609563
0.000607433
0.000598472
0.000609517
0.000596335
0.000598478
0.00060961
0.000596288
0.000596386
0.000607435
0.000609563
0.000598474
0.000609518
0.00059848
0.000596336
0.000609611
0.000609611
0.000596857
0.00059629
0.00059629
0.000560461
0.000573781
0.000573777
0.000560454
0.000573784
0.000560451
0.000560458
0.000573779
0.000573774
0.000560453
0.000571611
0.000571612
0.000571613
0.00054472
0.00054472
0.000544721
0.000544722
0.000560547
0.000573738
0.000571603
0.000562633
0.000573693
0.000560497
0.000562639
0.000573786
0.000560452
0.000560545
0.000571602
0.00057374
0.000562635
0.000573692
0.000562639
0.000560498
0.000573783
0.000573785
0.000561018
0.000560452
0.000560451
0.000524596
0.000537924
0.000537919
0.00052459
0.00053793
0.000524588
0.0005246
0.000537927
0.000537923
0.000524594
0.000535753
0.000535754
0.000535756