/*--------------------------------*- C++ -*----------------------------------*\
| =========                 |                                                 |
| \\      /  F ield         | OpenFOAM: The Open Source CFD Toolbox           |
|  \\    /   O peration     | Version:  v2012                                 |
|   \\  /    A nd           | Website:  www.openfoam.com                      |
|    \\/     M anipulation  |                                                 |
\*---------------------------------------------------------------------------*/
FoamFile
{
    version     2.0;
    format      ascii;
    class       surfaceScalarField;
    location    "300";
    object      phi;
}
// * * * * * * * * * * * * * * * * * * * * * * * * * * * * * * * * * * * * * //

dimensions      [0 3 -1 0 0 0 0];
oriented        oriented;


internalField   nonuniform List<scalar> 
248808
(
-2.13578e-07
-2.13748e-07
1.86103e-07
1.85692e-07
0.00119097
-1.25356e-06
2.13473e-07
-2.80678e-07
1.22473e-06
2.57963e-07
8.80889e-07
-2.81631e-07
2.36084e-07
-9.2772e-07
7.53934e-08
0.00113997
1.29326e-06
1.25635e-06
-2.38955e-07
-2.46891e-07
0.000269497
-2.86237e-07
1.2644e-06
2.6332e-07
8.80988e-07
-2.7901e-07
2.33217e-07
-9.27875e-07
7.58947e-08
0.00113949
7.53368e-08
-2.83517e-07
1.22761e-06
2.60856e-07
8.83801e-07
-2.81811e-07
2.36097e-07
-9.30574e-07
0.00114061
-1.29326e-06
2.13708e-07
7.57178e-08
-2.89004e-07
1.26451e-06
2.66268e-07
8.83571e-07
-2.8179e-07
2.3592e-07
-9.3059e-07
0.00113959
-2.39108e-07
-2.46684e-07
0.000269478
-7.96185e-09
4.06546e-08
0.000192048
-6.00436e-09
-7.86889e-09
4.07331e-08
0.000192068
-6.21021e-09
6.08251e-08
3.07538e-10
0.000228353
1.99781e-10
-2.35536e-08
1.85575e-07
1.86058e-07
0.00119055
7.8973e-09
1.83372e-08
9.70692e-05
-1.959e-08
-4.07062e-08
1.06589e-07
0.000244397
1.26522e-08
1.59844e-08
9.70859e-05
1.60923e-08
9.7085e-05
1.96546e-08
4.11194e-08
0.000276418
-1.25972e-08
2.19362e-08
4.11814e-08
0.000276375
-1.24851e-08
1.0419e-07
0.000244399
1.27283e-08
1.04255e-07
0.000244414
1.26023e-08
3.56457e-09
3.29254e-07
9.62737e-07
-8.54794e-07
7.81665e-07
-1.03039e-06
0.00116168
1.87306e-09
0.00025015
-1.92026e-09
1.92949e-07
4.29052e-08
0.000192015
-6.25721e-09
6.08156e-08
0.000228317
-2.35465e-08
4.92547e-10
3.29345e-07
9.62842e-07
-8.57561e-07
7.81695e-07
-1.03317e-06
0.00116166
-2.18459e-08
1.04202e-07
0.000244345
1.49124e-08
0.00025012
1.95552e-07
-1.95737e-09
4.33896e-08
0.000276328
-1.21455e-08
-1.60622e-08
4.33743e-08
0.000276425
-1.19758e-08
7.88578e-09
9.70788e-05
0.000192031
-6.14907e-09
5.78092e-09
-3.52528e-08
1.55822e-09
0.000192076
-2.58787e-08
5.15095e-08
0.000261309
4.50243e-10
7.8481e-05
1.07016e-09
-2.49117e-08
-7.85264e-05
-1.92598e-09
7.85532e-05
2.06466e-09
5.80025e-09
-3.75054e-08
0.000192098
0.000261417
-2.37683e-08
3.81668e-10
5.16977e-08
-4.46571e-09
-5.32452e-08
0.000261452
8.76978e-10
-2.48911e-08
-7.64239e-10
-0.00014216
0.000142184
2.69768e-09
2.62064e-08
-1.1446e-11
-5.69393e-08
0.000228381
0.000222208
-2.45389e-08
6.0778e-08
0.000169691
1.32606e-09
9.17326e-11
-5.68948e-08
0.000222238
-8.89082e-12
0.000169717
-5.80595e-09
-2.37513e-08
9.70987e-05
-2.14852e-08
9.71131e-05
-2.14619e-08
9.71123e-05
2.95355e-08
-2.55469e-08
-0.000220934
2.34995e-08
-5.69506e-08
0.000220964
0.000250165
-3.29434e-08
9.53608e-08
5.09082e-08
8.35417e-09
-4.17079e-08
-1.7461e-08
0.000276448
0.000181697
2.51243e-08
-1.31192e-08
1.24409e-08
0.000181723
-9.13237e-08
-3.2565e-08
0.000250222
-2.23894e-08
5.11684e-08
2.94769e-08
-2.57575e-08
-0.000220868
2.16523e-08
-5.91029e-08
0.000220902
0.000250074
-3.28389e-08
9.53245e-08
5.59007e-08
8.56317e-09
-4.1709e-08
-1.9964e-08
0.000276406
0.000181648
2.51772e-08
-1.3043e-08
1.25924e-08
0.000181673
-9.12747e-08
-3.78521e-08
0.000250136
-2.02784e-08
5.34686e-08
1.25881e-08
1.24505e-08
-0.000212359
0.000212379
7.9894e-05
1.06273e-08
7.98806e-05
1.07231e-08
7.9919e-05
7.99056e-05
-2.70776e-08
-7.84784e-05
-2.10563e-09
7.85076e-05
1.61496e-09
-3.74129e-08
0.000192045
0.000261297
-2.60013e-08
1.7965e-10
5.16414e-08
-4.49649e-09
-5.06894e-08
0.000261327
9.63994e-10
-7.24212e-10
-2.68795e-08
-0.000142087
0.000142112
2.6183e-08
2.44919e-09
-5.44952e-08
0.000228343
0.000169656
1.48702e-09
0.000222116
-2.65467e-08
6.06841e-08
0.000169682
-5.43709e-08
0.000222142
3.14186e-08
-2.56994e-08
-0.000220856
2.16272e-08
-5.905e-08
0.000220888
0.000250028
-3.28955e-08
9.53095e-08
5.58802e-08
8.06265e-09
-4.39176e-08
-1.98264e-08
0.00027636
0.00018164
2.70703e-08
-1.31559e-08
1.2575e-08
0.000181667
-9.12306e-08
-3.77811e-08
0.000250088
-2.03684e-08
5.33356e-08
-2.56329e-08
3.14715e-08
-0.000220932
2.35634e-08
-5.4591e-08
0.000220958
0.000250176
-3.28222e-08
9.2779e-08
5.08377e-08
-4.4014e-08
7.92769e-09
2.15204e-08
-1.75198e-08
0.000276457
0.000181698
2.70909e-08
-1.3033e-08
-8.88039e-08
-3.27237e-08
0.000250228
1.24985e-08
0.000181725
-2.2302e-08
4.88544e-08
1.24983e-08
1.25452e-08
-0.000212352
0.000212372
7.98771e-05
1.06266e-08
7.9895e-05
1.07181e-08
7.99021e-05
7.99201e-05
-5.75462e-09
9.71061e-05
-3.5367e-08
1.68269e-09
0.000192059
5.33358e-10
0.00121574
2.50441e-07
-1.03871e-07
-1.01682e-07
-0.000242575
0.000242665
0.000261259
-1.06644e-07
0.000261683
-1.04221e-07
2.28654e-07
2.36522e-07
0.000271524
0.000261556
0.000261987
-1.01364e-07
-1.04131e-07
-0.00024256
0.000242652
0.00026163
-1.06766e-07
0.000261273
-1.03988e-07
2.36419e-07
2.28712e-07
0.000271502
0.000261577
0.00026193
0.00121488
2.5026e-07
1.58614e-08
1.70473e-07
-0.000264491
0.000265198
-1.28324e-08
0.000260349
2.80259e-08
-8.72601e-08
-1.37702e-08
0.000244445
0.00025008
1.87607e-07
-5.16829e-08
6.84504e-09
0.000260481
5.08686e-08
0.000250195
-8.74946e-09
2.5677e-08
1.65334e-07
1.32577e-08
-0.000264486
0.000265193
-5.13384e-09
0.000260339
2.8177e-08
-1.37807e-08
-8.47238e-08
0.000244445
0.000250082
1.82514e-07
6.87185e-09
5.06957e-08
0.000250191
-8.71048e-09
0.000260468
1.81459e-08
1.68004e-07
1.33197e-08
-0.000264543
-1.79986e-08
0.000265263
0.00026037
2.80253e-08
-1.37909e-08
-8.47701e-08
0.000244455
0.000250147
1.85058e-07
9.20083e-09
-8.71028e-09
0.000250257
0.000260496
3.34553e-08
1.83077e-07
-2.62296e-09
-0.000266518
0.000267283
3.37713e-09
-1.62534e-07
-3.39922e-10
0.000250253
0.000249327
2.104e-07
0.000266918
-7.05445e-09
7.37066e-09
0.000249448
-4.51416e-09
0.000267539
1.67801e-07
1.58873e-08
-0.000264459
-2.66437e-09
0.000265161
0.000260288
3.05304e-08
-1.61904e-08
-8.46354e-08
0.000244389
0.000250055
1.85049e-07
6.63919e-09
-6.37805e-09
0.000250162
0.000260417
1.79585e-08
1.43845e-09
1.83091e-07
-0.000266456
0.000267231
-1.62534e-07
2.47524e-09
0.000250225
0.000266902
-5.42986e-09
0.000249241
2.12959e-07
0.000267518
0.000249366
-1.25904e-06
2.13741e-07
7.55145e-08
0.00114033
-2.80641e-07
1.23024e-06
2.57929e-07
8.81041e-07
-2.79015e-07
2.33305e-07
-9.27891e-07
1.28776e-06
1.25365e-06
-2.41525e-07
-2.46848e-07
0.000269491
-1.90006e-07
-1.90247e-07
-0.00119111
1.72212e-07
1.725e-07
0.00119114
-0.00113991
-1.25373e-06
1.90176e-07
6.51971e-08
0.00113976
-2.76535e-07
1.23157e-06
2.59683e-07
8.83599e-07
-2.73617e-07
-9.21798e-07
2.36227e-07
-0.00113954
-1.24825e-06
1.89988e-07
6.51573e-08
0.0011394
-2.76567e-07
1.2261e-06
2.59691e-07
8.83485e-07
-2.76271e-07
-9.21663e-07
2.39054e-07
-0.0002714
1.28246e-06
1.24832e-06
-2.37536e-07
-2.42917e-07
0.000269349
-1.67264e-07
-1.67679e-07
-0.00119122
1.58681e-07
1.58821e-07
0.00119124
-0.00113935
-1.24885e-06
1.67518e-07
5.55506e-08
0.00113921
-2.72745e-07
1.23278e-06
2.6125e-07
8.86001e-07
-2.68548e-07
-9.16129e-07
2.3903e-07
-0.00113898
-1.24332e-06
1.67409e-07
5.55174e-08
0.00113885
-2.72744e-07
1.22732e-06
2.61272e-07
8.85841e-07
-2.71212e-07
-9.16002e-07
2.41814e-07
-0.000271264
1.27762e-06
1.24343e-06
-2.33922e-07
-2.39351e-07
0.000269217
-1.45585e-07
-1.45955e-07
-0.00119127
1.45153e-07
1.45188e-07
0.00119127
-0.00113881
-1.24423e-06
1.45776e-07
4.65496e-08
0.00113868
-2.69245e-07
1.23386e-06
2.62637e-07
8.88293e-07
-2.63795e-07
-9.10869e-07
2.41609e-07
-0.00113845
-1.23878e-06
1.45756e-07
4.6567e-08
0.00113832
-2.6927e-07
1.22837e-06
2.62655e-07
8.8811e-07
-2.66495e-07
-9.10681e-07
2.44337e-07
-0.000271138
1.27311e-06
1.2389e-06
-2.30617e-07
-2.36071e-07
0.000269093
-1.24908e-07
-1.2533e-07
-0.00119125
1.31715e-07
1.31652e-07
0.00119123
-0.0011383
-1.24004e-06
1.25223e-07
3.81721e-08
0.00113817
-2.66011e-07
1.23475e-06
2.63859e-07
8.90252e-07
-2.59355e-07
-9.05858e-07
2.43974e-07
-0.00113793
-1.23455e-06
1.25235e-07
3.82575e-08
0.00113781
-2.66024e-07
1.22928e-06
2.63873e-07
8.90111e-07
-2.62065e-07
-9.05795e-07
2.46712e-07
-0.00027102
1.2689e-06
1.23468e-06
-2.27579e-07
-2.3305e-07
0.000268977
-1.05477e-07
-1.05864e-07
-0.00119118
1.18514e-07
1.18394e-07
0.00119115
-0.00113781
-1.23619e-06
1.05867e-07
3.06084e-08
0.00113769
-2.631e-07
1.23552e-06
2.64856e-07
8.92072e-07
-2.55324e-07
-9.01303e-07
2.46071e-07
-0.00113744
-1.23066e-06
1.05965e-07
3.06879e-08
0.00113732
-2.63074e-07
1.23003e-06
2.64931e-07
8.91875e-07
-2.58047e-07
-9.01262e-07
2.48785e-07
-0.000270911
1.26508e-06
1.23088e-06
-2.24896e-07
-2.30354e-07
0.00026887
-8.75323e-08
-8.77843e-08
-0.00119106
1.05733e-07
1.05588e-07
0.00119102
-0.00113734
-1.2327e-06
8.80009e-08
2.37381e-08
0.00113723
-2.60472e-07
1.23607e-06
2.65699e-07
8.93593e-07
-2.51643e-07
-8.9724e-07
2.47926e-07
-0.00113697
-1.2272e-06
8.81434e-08
2.37782e-08
0.00113686
-2.60451e-07
1.23062e-06
2.65756e-07
8.93406e-07
-2.5439e-07
-8.97159e-07
2.50601e-07
-0.00027081
1.26162e-06
1.22743e-06
-2.22501e-07
-2.27968e-07
0.000268771
-7.10988e-08
-7.12379e-08
-0.0011909
9.34352e-08
9.33456e-08
0.00119086
-0.0011369
-1.22958e-06
7.17425e-08
1.75395e-08
0.00113679
-2.58183e-07
1.23647e-06
2.66312e-07
8.94859e-07
-2.48408e-07
-8.93574e-07
2.49424e-07
-0.00113653
-1.22408e-06
7.18959e-08
1.75555e-08
0.00113642
-2.58159e-07
1.23103e-06
2.664e-07
8.94625e-07
-2.51159e-07
-8.93532e-07
2.52111e-07
-0.000270717
1.25853e-06
1.22436e-06
-2.20453e-07
-2.25906e-07
0.00026868
-5.63526e-08
-5.62055e-08
-0.00119071
8.16359e-08
8.17822e-08
0.00119066
-0.00113648
-1.22695e-06
5.71819e-08
1.2524e-08
0.00113638
-2.5635e-07
1.2366e-06
2.66641e-07
8.95798e-07
-2.45634e-07
-8.90403e-07
2.50613e-07
-0.00113611
-1.22138e-06
5.72804e-08
1.21714e-08
0.00113601
-2.562e-07
1.23121e-06
2.66825e-07
8.95551e-07
-2.48415e-07
-8.90378e-07
2.53257e-07
-0.000270632
1.25586e-06
1.22175e-06
-2.18811e-07
-2.24187e-07
0.000268597
-4.33874e-08
-4.28992e-08
-0.0011905
7.05967e-08
7.10578e-08
0.00119045
-0.00113609
-1.22475e-06
4.43453e-08
8.41138e-09
0.001136
-2.54863e-07
1.23643e-06
2.66689e-07
8.96433e-07
-2.43306e-07
-8.87736e-07
2.51474e-07
-0.00113572
-1.21907e-06
4.43551e-08
7.65857e-09
0.00113563
-2.54634e-07
1.23116e-06
2.66983e-07
8.96188e-07
-2.46098e-07
-8.87699e-07
2.54103e-07
-0.000270554
1.25357e-06
1.21958e-06
-2.17541e-07
-2.22802e-07
0.000268521
-3.23964e-08
-3.1348e-08
-0.00119028
6.04233e-08
6.13507e-08
0.00119022
-0.00113573
-1.22306e-06
3.33192e-08
5.47321e-09
0.00113564
-2.53831e-07
1.23599e-06
2.66424e-07
8.96723e-07
-2.41458e-07
-8.8557e-07
2.5197e-07
-0.00113536
-1.21729e-06
3.30854e-08
4.20877e-09
0.00113528
-2.535e-07
1.23081e-06
2.66798e-07
8.9652e-07
-2.44218e-07
-8.85501e-07
2.54647e-07
-0.000270484
1.25167e-06
1.21788e-06
-2.16682e-07
-2.21758e-07
0.000268453
-2.32188e-08
-2.1645e-08
-0.00119004
5.12064e-08
5.26879e-08
0.00118998
-0.0011354
-1.22179e-06
2.4018e-08
3.46136e-09
0.00113532
-2.53185e-07
1.2353e-06
2.65885e-07
8.96682e-07
-2.40127e-07
-8.83896e-07
2.5208e-07
-0.00113503
-1.21597e-06
2.33857e-08
1.96116e-09
0.00113495
-2.52828e-07
1.23018e-06
2.66289e-07
8.96523e-07
-2.42836e-07
-8.83796e-07
2.54804e-07
-0.000270421
1.2502e-06
1.21664e-06
-2.16213e-07
-2.21051e-07
0.000268391
-1.56116e-08
-1.37243e-08
-0.00118981
4.30671e-08
4.494e-08
0.00118975
-0.00113509
-1.22089e-06
1.61405e-08
2.16666e-09
0.00113502
-2.52867e-07
1.2344e-06
2.65148e-07
8.96339e-07
-2.3921e-07
-8.82693e-07
2.51886e-07
-0.00113473
-1.21508e-06
1.50494e-08
5.9664e-10
0.00113466
-2.52526e-07
1.2293e-06
2.65508e-07
8.9629e-07
-2.41789e-07
-8.82478e-07
2.54733e-07
-0.000270365
1.24901e-06
1.21568e-06
-2.16036e-07
-2.20649e-07
0.000268337
-9.0607e-09
-7.19218e-09
-0.00118957
3.58791e-08
3.77884e-08
0.00118952
-0.00113482
-1.22022e-06
9.19807e-09
1.12421e-09
0.00113476
-2.52704e-07
1.23349e-06
2.64342e-07
8.95839e-07
-2.3856e-07
-8.81778e-07
2.51507e-07
-0.00113446
-1.2145e-06
7.78884e-09
-3.42985e-10
0.0011344
-2.5251e-07
1.22825e-06
2.64543e-07
8.95957e-07
-2.40953e-07
-8.81397e-07
2.54534e-07
-0.000270317
1.24813e-06
1.21501e-06
-2.1606e-07
-2.20525e-07
0.00026829
-3.01304e-09
-1.8842e-09
-0.00118935
2.95586e-08
3.11097e-08
0.00118929
-0.00113459
-1.21961e-06
2.82866e-09
-6.42372e-11
0.00113453
-2.52545e-07
1.23259e-06
2.63568e-07
8.95362e-07
-2.3798e-07
-8.80937e-07
2.51127e-07
-0.00113423
-1.21408e-06
1.43347e-09
-1.0242e-09
0.00113418
-2.5257e-07
1.22716e-06
2.63554e-07
8.95614e-07
-2.40221e-07
-8.80415e-07
2.54276e-07
-0.000270275
1.24744e-06
1.21431e-06
-2.1598e-07
-2.20543e-07
0.00026825
3.87574e-09
4.06622e-09
-0.00118912
2.28806e-08
2.34732e-08
0.00118907
-0.00113438
-1.21884e-06
-4.87396e-09
-1.53665e-09
0.00113433
-2.52226e-07
1.23197e-06
2.63055e-07
8.95268e-07
-2.37152e-07
-8.79796e-07
2.51099e-07
-0.00113403
-1.21353e-06
-6.6873e-09
-1.03074e-09
0.00113398
-2.5247e-07
1.22636e-06
2.62804e-07
8.9558e-07
-2.3935e-07
-8.79217e-07
2.54305e-07
-0.00027024
1.24693e-06
1.21326e-06
-2.15565e-07
-2.20612e-07
0.000268216
1.30236e-08
1.10057e-08
-0.00118891
1.54161e-08
1.45429e-08
0.00118885
-0.0011342
-1.21785e-06
-1.38698e-08
-3.39668e-09
0.00113416
-2.51606e-07
1.23171e-06
2.62825e-07
8.95561e-07
-2.36045e-07
-8.78413e-07
2.51345e-07
-0.00113385
-1.21281e-06
-1.48946e-08
-1.09804e-09
0.00113381
-2.52163e-07
1.2258e-06
2.623e-07
8.95705e-07
-2.38357e-07
-8.77988e-07
2.54427e-07
-0.000270211
1.24624e-06
1.21197e-06
-2.1481e-07
-2.20492e-07
0.000268188
2.21061e-08
1.80691e-08
-0.00118869
8.30503e-09
5.64359e-09
0.00118864
-0.00113405
-1.2166e-06
-2.29624e-08
-5.47629e-09
0.00113402
-2.50765e-07
1.23175e-06
2.62871e-07
8.95953e-07
-2.34771e-07
-8.76913e-07
2.51789e-07
-0.00113369
-1.21179e-06
-2.31421e-08
-1.84294e-09
0.00113366
-2.51532e-07
1.22559e-06
2.62116e-07
8.96052e-07
-2.37268e-07
-8.76591e-07
2.54697e-07
-0.000270187
1.24533e-06
1.21046e-06
-2.13821e-07
-2.20071e-07
0.000268165
3.05008e-08
2.53466e-08
-0.00118847
1.89223e-09
-2.59246e-09
0.00118842
-0.00113392
-1.21518e-06
-3.11816e-08
-8.70394e-09
0.00113389
-2.49704e-07
1.23203e-06
2.63157e-07
8.96585e-07
-2.3339e-07
-8.75233e-07
2.52378e-07
-0.00113355
-1.21044e-06
-3.0659e-08
-4.51573e-09
0.00113352
-2.50489e-07
1.22582e-06
2.62407e-07
8.96503e-07
-2.35987e-07
-8.75029e-07
2.55189e-07
-0.000270167
1.2442e-06
1.20899e-06
-2.12823e-07
-2.1935e-07
0.000268146
3.78394e-08
3.2453e-08
-0.00118825
-4.26739e-09
-9.39221e-09
0.0011882
-0.0011338
-1.21359e-06
-3.84575e-08
-1.26711e-08
0.00113377
-2.48383e-07
1.23256e-06
2.63758e-07
8.97407e-07
-2.31938e-07
-8.73532e-07
2.53106e-07
-0.00113342
-1.20877e-06
-3.72836e-08
-8.47178e-09
0.00113339
-2.49027e-07
1.22641e-06
2.63167e-07
8.97088e-07
-2.3468e-07
-8.73521e-07
2.55747e-07
-0.00027015
1.2428e-06
1.20764e-06
-2.119e-07
-2.18297e-07
0.00026813
4.43778e-08
4.02331e-08
-0.00118802
-1.09735e-08
-1.57012e-08
0.00118797
-0.00113369
-1.21201e-06
-4.52076e-08
-1.63742e-08
0.00113366
-2.47108e-07
1.2332e-06
2.64353e-07
8.98231e-07
-2.30474e-07
-8.71873e-07
2.53926e-07
-0.0011333
-1.20695e-06
-4.3519e-08
-1.31125e-08
0.00113328
-2.47485e-07
1.22727e-06
2.63996e-07
8.97803e-07
-2.33448e-07
-8.72005e-07
2.56323e-07
-0.000270137
1.24122e-06
1.20643e-06
-2.11036e-07
-2.17013e-07
0.000268117
4.9431e-08
4.7198e-08
-0.00118779
-1.73026e-08
-2.07675e-08
0.00118773
-0.00113359
-1.21077e-06
-5.05767e-08
-1.90814e-08
0.00113356
-2.46243e-07
1.23365e-06
2.64709e-07
8.9896e-07
-2.29255e-07
-8.7042e-07
2.54632e-07
-0.00113319
-1.20547e-06
-4.86598e-08
-1.69684e-08
0.00113316
-2.46332e-07
1.22791e-06
2.64571e-07
8.98384e-07
-2.32359e-07
-8.70733e-07
2.56851e-07
-0.000270125
1.23989e-06
1.20561e-06
-2.10386e-07
-2.15876e-07
0.000268106
5.25546e-08
5.18428e-08
-0.00118756
-2.22302e-08
-2.42224e-08
0.0011875
-0.00113348
-1.21006e-06
-5.43012e-08
-2.06638e-08
0.00113346
-2.45759e-07
1.23368e-06
2.64695e-07
8.9942e-07
-2.28332e-07
-8.69475e-07
2.55066e-07
-0.00113309
-1.20469e-06
-5.25999e-08
-1.93237e-08
0.00113306
-2.45847e-07
1.22804e-06
2.64657e-07
8.9876e-07
-2.31511e-07
-8.69844e-07
2.57286e-07
-0.000270114
1.23895e-06
1.20509e-06
-2.10062e-07
-2.15182e-07
0.000268095
5.3213e-08
5.40775e-08
-0.00118733
-2.5548e-08
-2.59117e-08
0.00118727
-0.00113339
-1.20997e-06
-5.59762e-08
-2.03031e-08
0.00113337
-2.45902e-07
1.2333e-06
2.64282e-07
8.99354e-07
-2.27948e-07
-8.69151e-07
2.55113e-07
-0.00113299
-1.20441e-06
-5.49597e-08
-2.05476e-08
0.00113297
-2.45773e-07
1.22783e-06
2.64412e-07
8.98902e-07
-2.31066e-07
-8.69358e-07
2.57465e-07
-0.000270105
1.23843e-06
1.20485e-06
-2.09975e-07
-2.14937e-07
0.000268087
5.18555e-08
5.36731e-08
-0.00118711
-2.72136e-08
-2.6257e-08
0.00118706
-0.0011333
-1.2104e-06
-5.54501e-08
-1.88923e-08
0.00113328
-2.46484e-07
1.23257e-06
2.63585e-07
8.98894e-07
-2.28317e-07
-8.69422e-07
2.5462e-07
-0.0011329
-1.20474e-06
-5.50248e-08
-1.99956e-08
0.00113288
-2.46191e-07
1.22718e-06
2.63828e-07
8.98555e-07
-2.31294e-07
-8.69448e-07
2.57137e-07
-0.000270099
1.23834e-06
1.20489e-06
-2.10165e-07
-2.15073e-07
0.000268081
4.84425e-08
5.06015e-08
-0.00118691
-2.70937e-08
-2.55148e-08
0.00118686
-0.00113322
-1.21118e-06
-5.20206e-08
-1.66632e-08
0.0011332
-2.47273e-07
1.23159e-06
2.62737e-07
8.97804e-07
-2.29362e-07
-8.70446e-07
2.53567e-07
-0.00113283
-1.20558e-06
-5.20674e-08
-1.81109e-08
0.00113281
-2.47106e-07
1.22621e-06
2.62934e-07
8.97578e-07
-2.32189e-07
-8.70347e-07
2.5616e-07
-0.000270094
1.23879e-06
1.20523e-06
-2.10646e-07
-2.15699e-07
0.000268076
4.31632e-08
4.49436e-08
-0.00118674
-2.51848e-08
-2.33388e-08
0.0011867
-0.00113315
-1.21235e-06
-4.60331e-08
-1.3591e-08
0.00113313
-2.4845e-07
1.23033e-06
2.61652e-07
8.96255e-07
-2.31086e-07
-8.7208e-07
2.51949e-07
-0.00113276
-1.20662e-06
-4.62038e-08
-1.59255e-08
0.00113274
-2.48105e-07
1.22513e-06
2.62051e-07
8.95904e-07
-2.33823e-07
-8.72129e-07
2.54568e-07
-0.000270092
1.23997e-06
1.20607e-06
-2.11629e-07
-2.16928e-07
0.000268074
3.48382e-08
3.66986e-08
-0.00118659
-2.07878e-08
-1.89872e-08
0.00118656
-0.00113309
-1.2138e-06
-3.77284e-08
-1.0951e-08
0.00113307
-2.49685e-07
1.22899e-06
2.60598e-07
8.94135e-07
-2.33399e-07
-8.74349e-07
2.49821e-07
-0.0011327
-1.20797e-06
-3.74279e-08
-1.21677e-08
0.00113269
-2.49418e-07
1.22386e-06
2.60887e-07
8.93793e-07
-2.36182e-07
-8.74393e-07
2.52398e-07
-0.000270091
1.24146e-06
1.20764e-06
-2.13162e-07
-2.18325e-07
0.000268073
2.58941e-08
2.71171e-08
-0.00118648
-1.50759e-08
-1.43072e-08
0.00118645
-0.00113303
-1.21522e-06
-2.77537e-08
-8.36186e-09
0.00113302
-2.51024e-07
1.22772e-06
2.5947e-07
8.91637e-07
-2.35841e-07
-8.77071e-07
2.47545e-07
-0.00113265
-1.20966e-06
-2.7857e-08
-9.32019e-09
0.00113264
-2.5086e-07
1.22228e-06
2.59665e-07
8.91671e-07
-2.38432e-07
-8.76779e-07
2.50329e-07
-0.000270089
1.24354e-06
1.20955e-06
-2.14917e-07
-2.20218e-07
0.000268071
1.76205e-08
1.83139e-08
-0.00118639
-1.04228e-08
-9.54274e-09
0.00118638
-0.00113299
-1.21661e-06
-1.82226e-08
-5.45777e-09
0.00113298
-2.52314e-07
1.2265e-06
2.58432e-07
8.89525e-07
-2.38402e-07
-8.79423e-07
2.45207e-07
-0.00113261
-1.21107e-06
-1.7074e-08
-6.87035e-09
0.0011326
-2.52229e-07
1.22106e-06
2.58522e-07
8.89195e-07
-2.41046e-07
-8.79458e-07
2.48023e-07
-0.000270085
1.24566e-06
1.21115e-06
-2.16495e-07
-2.2227e-07
0.000268067
1.11695e-08
1.16043e-08
-0.00118634
-6.70516e-09
-6.12754e-09
0.00118633
-0.00113296
-1.21791e-06
-1.111e-08
-3.93126e-09
0.00113295
-2.53456e-07
1.22538e-06
2.57533e-07
8.8765e-07
-2.40263e-07
-8.81526e-07
2.43608e-07
-0.00113257
-1.21237e-06
-8.9949e-09
-4.20157e-09
0.00113257
-2.5347e-07
1.22e-06
2.5754e-07
8.87203e-07
-2.43397e-07
-8.81745e-07
2.45862e-07
-0.000270083
1.24715e-06
1.21271e-06
-2.18023e-07
-2.23782e-07
0.000268065
7.75029e-09
6.8698e-09
-0.00118631
-3.90924e-09
-4.1894e-09
0.0011863
-0.00113294
-1.21875e-06
-6.15995e-09
-3.40181e-09
0.00113293
-2.54166e-07
1.22466e-06
2.56938e-07
8.86346e-07
-2.41729e-07
-8.82958e-07
2.42285e-07
-0.00113255
-1.21334e-06
-5.21201e-09
-1.81147e-09
0.00113255
-2.5439e-07
1.21914e-06
2.56706e-07
8.85935e-07
-2.44763e-07
-8.83087e-07
2.44682e-07
-0.000270079
1.24809e-06
1.21398e-06
-2.1916e-07
-2.24617e-07
0.000268061
5.8679e-09
5.68619e-09
-0.00118629
-3.37982e-09
-3.45029e-09
0.00118628
-0.00113293
-1.21914e-06
-4.60278e-09
-2.66723e-09
0.00113293
-2.54697e-07
1.22436e-06
2.56495e-07
8.8577e-07
-2.42521e-07
-8.83655e-07
2.41606e-07
-0.00113253
-1.21383e-06
-3.2241e-09
-1.60507e-09
0.00113253
-2.54855e-07
1.21873e-06
2.56357e-07
8.85284e-07
-2.45409e-07
-8.83831e-07
2.44135e-07
-0.000270075
1.24883e-06
1.21446e-06
-2.19739e-07
-2.25449e-07
0.000268057
6.37443e-09
4.93821e-09
-0.00118627
-3.23434e-09
-4.26815e-09
0.00118627
-0.00113292
-1.21926e-06
-3.94677e-09
-2.58532e-09
0.00113292
-2.54946e-07
1.22431e-06
2.56313e-07
8.85464e-07
-2.4274e-07
-8.83999e-07
2.41448e-07
-0.00113253
-1.21402e-06
-3.04751e-09
-1.25628e-09
0.00113253
-2.55044e-07
1.21853e-06
2.56191e-07
8.85036e-07
-2.45721e-07
-8.8417e-07
2.43855e-07
-0.000270074
1.24906e-06
1.21467e-06
-2.19993e-07
-2.25753e-07
0.000268056
6.8062e-09
5.02156e-09
-0.00118626
-3.30278e-09
-5.06067e-09
0.00118625
-0.00113292
-1.2194e-06
-4.68376e-09
-2.10608e-09
0.00113292
-2.55108e-07
1.22417e-06
2.561e-07
8.85621e-07
-2.42737e-07
-8.8391e-07
2.41451e-07
-0.00113252
-1.21417e-06
-3.79808e-09
-5.32976e-10
0.00113252
-2.55153e-07
1.21833e-06
2.56091e-07
8.85081e-07
-2.4572e-07
-8.84123e-07
2.43865e-07
-0.000270072
1.24905e-06
1.21469e-06
-2.20014e-07
-2.25765e-07
0.000268054
6.36707e-09
5.73789e-09
-0.00118625
-3.89708e-09
-5.08009e-09
0.00118624
-0.00113292
-1.21961e-06
-4.83741e-09
-1.74365e-09
0.00113292
-2.55196e-07
1.22394e-06
2.56007e-07
8.85565e-07
-2.42627e-07
-8.83878e-07
2.41562e-07
-0.00113252
-1.21428e-06
-3.5866e-09
-6.01843e-10
0.00113252
-2.55262e-07
1.21823e-06
2.55946e-07
8.85028e-07
-2.45786e-07
-8.84173e-07
2.438e-07
-0.000270071
1.2489e-06
1.21481e-06
-2.20247e-07
-2.25688e-07
0.000268053
5.70236e-09
6.25769e-09
-0.00118624
-4.63638e-09
-4.35999e-09
0.00118623
-0.00113292
-1.21998e-06
-4.8681e-09
2.33525e-10
0.00113292
-2.55616e-07
1.22356e-06
2.55577e-07
8.85524e-07
-2.42766e-07
-8.83982e-07
2.41393e-07
-0.00113252
-1.21446e-06
-3.94837e-09
-5.39245e-11
0.00113252
-2.55534e-07
1.21809e-06
2.55686e-07
8.85045e-07
-2.4581e-07
-8.84149e-07
2.43785e-07
-0.00027007
1.24888e-06
1.21498e-06
-2.20416e-07
-2.25715e-07
0.000268053
5.24939e-09
7.01716e-09
-0.00118623
-5.30921e-09
-4.11224e-09
0.00118623
-0.00113292
-1.22023e-06
-5.02278e-09
1.24002e-09
0.00113292
-2.55832e-07
1.22327e-06
2.55351e-07
8.85459e-07
-2.42837e-07
-8.8402e-07
2.41289e-07
-0.00113252
-1.21451e-06
-4.20728e-09
1.66447e-10
0.00113252
-2.5564e-07
1.21802e-06
2.55541e-07
8.85076e-07
-2.4571e-07
-8.84019e-07
2.4382e-07
-0.00027007
1.2488e-06
1.21497e-06
-2.20417e-07
-2.25696e-07
0.000268053
6.26844e-09
6.77073e-09
-0.00118622
-5.17126e-09
-4.92357e-09
0.00118622
-0.00113291
-1.22029e-06
-4.66598e-09
1.21518e-09
0.00113291
-2.55833e-07
1.22317e-06
2.55265e-07
8.85234e-07
-2.42884e-07
-8.84105e-07
2.4111e-07
-0.00113252
-1.21468e-06
-3.75763e-09
5.61325e-10
0.00113252
-2.55804e-07
1.21778e-06
2.55311e-07
8.84915e-07
-2.45637e-07
-8.84169e-07
2.43743e-07
-0.000270071
1.24882e-06
1.21493e-06
-2.20465e-07
-2.25682e-07
0.000268053
6.71637e-09
6.53837e-09
-0.00118622
-4.82979e-09
-5.0208e-09
0.00118622
-0.00113291
-1.22043e-06
-4.67368e-09
2.19357e-09
0.00113291
-2.56033e-07
1.22299e-06
2.54988e-07
8.84951e-07
-2.42842e-07
-8.84266e-07
2.40865e-07
-0.00113251
-1.21513e-06
-4.9701e-09
2.14838e-09
0.00113252
-2.5622e-07
1.21727e-06
2.54784e-07
8.84804e-07
-2.45536e-07
-8.84012e-07
2.43632e-07
-0.000270072
1.24882e-06
1.21499e-06
-2.20555e-07
-2.25695e-07
0.000268054
5.99686e-09
7.11961e-09
-0.00118622
-5.04522e-09
-3.90372e-09
0.00118621
-0.00113291
-1.22061e-06
-5.44276e-09
3.18735e-09
0.00113291
-2.56131e-07
1.22259e-06
2.54682e-07
8.84651e-07
-2.42751e-07
-8.84027e-07
2.40444e-07
-0.00113251
-1.2153e-06
-6.70601e-09
2.81771e-09
0.00113252
-2.56302e-07
1.21692e-06
2.54464e-07
8.84674e-07
-2.45097e-07
-8.83636e-07
2.43515e-07
-0.000270072
1.24859e-06
1.21503e-06
-2.20477e-07
-2.25454e-07
0.000268055
7.09365e-09
7.7482e-09
-0.00118622
-5.65684e-09
-4.62173e-09
0.00118621
-0.0011329
-1.22042e-06
-6.41921e-09
2.56764e-09
0.00113291
-2.5591e-07
1.22242e-06
2.54428e-07
8.84107e-07
-2.42136e-07
-8.83465e-07
2.39879e-07
-0.00113251
-1.21508e-06
-8.21549e-09
2.01829e-09
0.00113252
-2.5601e-07
1.21678e-06
2.54304e-07
8.84238e-07
-2.44416e-07
-8.83044e-07
2.42992e-07
-0.000270073
1.24835e-06
1.21486e-06
-2.20237e-07
-2.25141e-07
0.000268055
9.33148e-09
8.85118e-09
-0.00118621
-6.84785e-09
-6.7412e-09
0.00118621
-0.0011329
-1.21987e-06
-8.16582e-09
2.01101e-09
0.0011329
-2.55274e-07
1.22209e-06
2.5406e-07
8.82891e-07
-2.40884e-07
-8.82598e-07
2.38522e-07
-0.00113252
-1.21475e-06
-1.07931e-08
1.57093e-09
0.00113252
-2.55572e-07
1.21629e-06
2.53734e-07
8.83256e-07
-2.43027e-07
-8.81868e-07
2.41779e-07
-0.000270073
1.24792e-06
1.21453e-06
-2.19825e-07
-2.24515e-07
0.000268055
1.28083e-08
1.13387e-08
-0.00118621
-9.23791e-09
-1.04559e-08
0.0011862
-0.00113289
-1.21907e-06
-1.15903e-08
2.44755e-09
0.0011329
-2.54262e-07
1.22081e-06
2.52592e-07
8.80459e-07
-2.37999e-07
-8.80463e-07
2.35204e-07
-0.00113252
-1.21389e-06
-1.49416e-08
2.1698e-09
0.00113253
-2.54506e-07
1.21508e-06
2.52338e-07
8.80913e-07
-2.3997e-07
-8.79662e-07
2.38598e-07
-0.000270074
1.24694e-06
1.21374e-06
-2.1868e-07
-2.23109e-07
0.000268055
1.83371e-08
1.668e-08
-0.0011862
-1.57858e-08
-1.71158e-08
0.0011862
-0.00113288
-1.21634e-06
-1.77986e-08
2.74963e-09
0.0011329
-2.50938e-07
1.21746e-06
2.48312e-07
8.75088e-07
-2.30079e-07
-8.75343e-07
2.268e-07
-0.00113252
-1.21107e-06
-2.04972e-08
2.57333e-09
0.00113254
-2.51133e-07
1.21178e-06
2.48191e-07
8.75229e-07
-2.32363e-07
-8.7481e-07
2.2987e-07
-0.000270075
1.24418e-06
1.21101e-06
-2.14718e-07
-2.19228e-07
0.000268054
4.36072e-08
4.32986e-08
-0.00118621
-3.72673e-08
-4.27059e-08
0.0011862
-0.00113287
-1.20774e-06
-3.86845e-08
-4.30607e-09
0.00113292
-2.39387e-07
1.20954e-06
2.39089e-07
8.65028e-07
-2.11207e-07
-8.64741e-07
2.05234e-07
-0.00113252
-1.19978e-06
-4.61676e-08
-1.82919e-10
0.00113257
-2.39485e-07
1.20124e-06
2.36202e-07
8.62468e-07
-2.10899e-07
-8.61597e-07
2.08369e-07
-0.000270084
1.23822e-06
1.20251e-06
-1.99698e-07
-2.04105e-07
0.000268047
9.68972e-07
9.76917e-07
-0.00118611
-8.63995e-07
-8.52115e-07
0.00118588
-0.00113316
-1.10297e-06
-9.70834e-07
-3.97544e-07
0.00113366
-1.31866e-07
1.36223e-06
2.99765e-07
9.8539e-07
-7.42933e-08
-7.40143e-07
2.73945e-07
-0.00113283
-1.09483e-06
-9.84293e-07
-4.09508e-07
0.00113334
-1.31775e-07
1.35675e-06
3.02577e-07
9.82802e-07
-7.97137e-08
-7.36871e-07
2.77215e-07
-0.000270177
1.13605e-06
1.09491e-06
-9.27991e-08
-9.44585e-08
0.000268134
5.51939e-06
5.51231e-06
-0.00117319
-1.17036e-05
-1.15956e-05
0.000285612
0.000287831
0.000287583
0.000287583
4.52729e-06
6.72333e-06
7.16755e-06
4.53128e-06
6.72422e-06
7.17109e-06
-0.000280994
5.4027e-06
-5.50906e-06
5.94896e-06
-3.37854e-06
0.00027853
-0.000280973
-5.51199e-06
5.40803e-06
-3.3869e-06
5.9464e-06
0.000278518
-0.000271121
-5.39997e-06
-5.41092e-06
5.71729e-06
5.70592e-06
0.000270509
-1.26539e-06
-1.22865e-06
0.000271417
-0.00026939
2.29832e-07
2.37677e-07
-1.29876e-06
2.14006e-07
7.59026e-08
0.00113994
-2.89028e-07
1.26995e-06
2.66199e-07
8.86418e-07
-2.81909e-07
2.3591e-07
-9.33501e-07
0.00113906
1.95891e-07
-0.0011392
6.82091e-08
-1.2893e-06
2.64612e-07
-2.83144e-07
-9.23286e-07
2.35507e-07
-2.7492e-07
8.82932e-07
1.27097e-06
0.00113951
1.96221e-07
-0.00113965
6.80306e-08
-1.29473e-06
2.6752e-07
-2.85922e-07
-9.28916e-07
2.38216e-07
-2.77805e-07
8.88374e-07
-2.41737e-07
-2.44118e-07
0.000269519
-1.2313e-06
0.000271446
-0.000269412
2.32587e-07
2.34962e-07
0.00114018
1.9605e-07
-0.00114032
6.7619e-08
-1.25237e-06
2.62198e-07
-2.80387e-07
-9.26075e-07
2.3836e-07
-2.77743e-07
8.85763e-07
1.26552e-06
0.00113916
1.95966e-07
-0.0011393
6.79426e-08
-1.28924e-06
2.67561e-07
-2.8591e-07
-9.26016e-07
2.38172e-07
-2.77688e-07
8.85533e-07
2.13415e-07
7.56837e-08
0.00113939
-2.83357e-07
1.25904e-06
2.60589e-07
8.80967e-07
-2.78966e-07
2.3324e-07
-9.27844e-07
1.96013e-07
-0.00114005
6.77211e-08
-1.25502e-06
2.59238e-07
-2.77567e-07
-9.23304e-07
2.35526e-07
8.82963e-07
-2.74913e-07
1.26002e-06
0.00113896
1.95702e-07
-0.0011391
6.79366e-08
-1.28379e-06
2.61901e-07
-2.80235e-07
-9.23271e-07
2.35511e-07
-2.74869e-07
8.82961e-07
-1.2258e-06
0.000271394
-0.000269371
2.29927e-07
2.37577e-07
2.13434e-07
7.53938e-08
0.0011405
-2.80725e-07
1.22493e-06
2.58073e-07
8.81137e-07
-2.81699e-07
2.36124e-07
-9.27882e-07
1.95805e-07
-0.00113968
6.76355e-08
-1.2495e-06
2.59299e-07
-2.77542e-07
-9.23158e-07
2.38308e-07
8.82913e-07
-2.77605e-07
1.22596e-06
0.00114007
1.95797e-07
-0.00114021
6.75763e-08
-1.24965e-06
2.59417e-07
-2.77591e-07
-9.23323e-07
2.38354e-07
-2.77624e-07
8.83106e-07
-0.000269384
2.32454e-07
2.37739e-07
1.28798e-06
1.25106e-06
-2.35e-07
-2.42966e-07
0.000269356
-1.26658e-06
-1.22988e-06
0.000271282
-0.000269255
2.31233e-07
2.39045e-07
6.5694e-08
0.00113892
-2.82179e-07
1.26571e-06
2.65014e-07
8.8356e-07
-2.73614e-07
-9.21793e-07
2.36225e-07
-1.29344e-06
1.90423e-07
6.55771e-08
0.00113937
-2.84943e-07
1.27123e-06
2.67928e-07
8.89002e-07
-2.76517e-07
-9.27437e-07
2.38909e-07
0.00113851
1.72955e-07
-0.00113864
5.85141e-08
-1.2843e-06
2.662e-07
-2.79327e-07
-9.17503e-07
2.38365e-07
-2.69757e-07
8.85379e-07
1.27218e-06
0.00113895
1.7333e-07
-0.00113909
5.83038e-08
-1.28974e-06
2.69099e-07
-2.82092e-07
-9.23143e-07
2.41036e-07
-2.72655e-07
8.90843e-07
-2.37769e-07
-2.40174e-07
0.000269377
-1.23254e-06
0.000271311
-0.000269277
2.33997e-07