/*--------------------------------*- C++ -*----------------------------------*\
| =========                 |                                                 |
| \\      /  F ield         | OpenFOAM: The Open Source CFD Toolbox           |
|  \\    /   O peration     | Version:  v2012                                 |
|   \\  /    A nd           | Website:  www.openfoam.com                      |
|    \\/     M anipulation  |                                                 |
\*---------------------------------------------------------------------------*/
FoamFile
{
    version     2.0;
    format      ascii;
    class       volVectorField;
    location    "300";
    object      U;
}
// * * * * * * * * * * * * * * * * * * * * * * * * * * * * * * * * * * * * * //

dimensions      [0 1 -1 0 0 0 0];


internalField   nonuniform List<vector> 
85864
(
(2.23246e-05 2.23305e-05 0.11314)
(9.87885e-06 -1.71989e-05 0.108269)
(4.41484e-05 4.4117e-05 0.104731)
(9.93596e-06 1.72337e-05 0.108267)
(1.7221e-05 9.88206e-06 0.108269)
(1.72641e-05 -9.90908e-06 0.108266)
(4.4119e-05 -4.41496e-05 0.104731)
(6.69446e-07 1.10079e-05 0.0815633)
(1.10293e-05 5.99047e-07 0.0815628)
(1.24618e-05 -3.5591e-07 0.0909787)
(2.23269e-05 -2.23056e-05 0.113139)
(5.4753e-06 -4.55379e-06 0.070855)
(6.70497e-06 -1.89782e-05 0.0926131)
(4.62324e-06 5.49485e-06 0.0708588)
(5.52163e-06 4.59465e-06 0.0708577)
(7.02163e-06 7.2793e-06 0.0869793)
(7.31025e-06 6.99946e-06 0.0869768)
(6.72661e-06 1.89628e-05 0.0926136)
(1.8997e-05 6.68708e-06 0.0926126)
(2.70707e-05 4.58408e-06 0.110822)
(2.45089e-05 1.3467e-07 0.0985321)
(1.1008e-05 -5.96316e-07 0.0815616)
(1.24636e-05 4.53072e-07 0.0909787)
(2.70669e-05 -4.59479e-06 0.110821)
(1.89851e-05 -6.6522e-06 0.0926115)
(2.45055e-05 -5.54082e-08 0.0985321)
(7.27509e-06 -7.00018e-06 0.0869749)
(6.99422e-06 -7.2917e-06 0.0869783)
(4.59461e-06 -5.51764e-06 0.0708583)
(6.1873e-07 -1.10361e-05 0.0815633)
(-1.56976e-06 -1.14319e-05 0.0816206)
(-4.51051e-07 9.60961e-06 0.0852102)
(-7.01262e-07 6.38104e-06 0.0677456)
(-6.70544e-06 7.13775e-08 0.0678168)
(-1.14349e-05 -1.53742e-06 0.0816208)
(9.66583e-06 -4.6955e-07 0.0852101)
(-1.17448e-05 -1.52193e-06 0.0852733)
(6.45639e-06 -6.75869e-07 0.0677467)
(-6.82245e-06 8.71212e-08 0.0762642)
(-1.40267e-05 -5.65762e-07 0.0910289)
(1.24562e-05 4.13839e-08 0.0894126)
(6.32545e-06 -5.92945e-07 0.0780026)
(-1.3515e-05 -1.07283e-06 0.0894692)
(-7.07187e-06 -3.87117e-07 0.0780488)
(7.03237e-06 -8.61711e-07 0.0762105)
(-6.84112e-06 2.02661e-06 0.0709207)
(-2.05859e-06 -6.88103e-06 0.0709199)
(-6.88258e-06 -2.09095e-06 0.0709194)
(-8.24535e-06 -1.63896e-05 0.0913135)
(1.40879e-05 2.104e-05 0.096066)
(-5.16111e-06 -8.3589e-06 0.0870353)
(4.44382e-06 6.42745e-06 0.0809454)
(-3.84483e-06 -7.60726e-06 0.0810029)
(-8.26005e-06 -2.06933e-05 0.096124)
(8.3581e-06 1.36179e-05 0.0912578)
(-1.63501e-05 -8.33175e-06 0.0913065)
(2.10206e-05 1.40492e-05 0.0960624)
(-8.34907e-06 -5.2197e-06 0.0870335)
(6.45848e-06 4.41317e-06 0.0809396)
(-7.57804e-06 -3.9099e-06 0.0809974)
(-2.06615e-05 -8.33455e-06 0.0961211)
(1.36326e-05 8.33181e-06 0.0912507)
(-6.63471e-06 -6.69607e-06 0.0831093)
(5.49721e-06 3.45993e-06 0.0677596)
(3.49415e-06 5.46245e-06 0.0677533)
(-5.49691e-06 -4.10995e-06 0.0678229)
(-4.06661e-06 -5.55822e-06 0.0678167)
(5.71114e-06 5.67389e-06 0.0830572)
(-6.65263e-06 -1.09371e-07 0.0678196)
(-1.14084e-05 1.53762e-06 0.0816209)
(9.64767e-06 5.24457e-07 0.0852092)
(-1.16935e-05 1.51652e-06 0.0852743)
(6.3998e-06 7.51507e-07 0.0677448)
(-6.78427e-06 -9.3326e-08 0.0762643)
(-1.40182e-05 5.8041e-07 0.0910287)
(6.32549e-06 6.58526e-07 0.0780022)
(1.24332e-05 5.24756e-08 0.0894118)
(-7.06609e-06 3.78364e-07 0.0780486)
(-1.34709e-05 1.07694e-06 0.0894694)
(6.98561e-06 9.31922e-07 0.0762079)
(-1.63307e-05 8.31629e-06 0.0913065)
(2.10142e-05 -1.40648e-05 0.0960616)
(-8.32337e-06 5.19219e-06 0.0870343)
(6.40812e-06 -4.46753e-06 0.0809382)
(-7.55386e-06 3.90608e-06 0.0809977)
(-2.06465e-05 8.31591e-06 0.0961212)
(1.35871e-05 -8.36165e-06 0.09125)
(-8.26429e-06 1.63623e-05 0.0913132)
(1.40535e-05 -2.0998e-05 0.0960654)
(-5.19012e-06 8.37719e-06 0.0870352)
(4.39836e-06 -6.42455e-06 0.0809441)
(-8.3118e-06 2.06753e-05 0.0961238)
(-3.85649e-06 7.5835e-06 0.0810029)
(8.31185e-06 -1.36078e-05 0.0912573)
(-6.6611e-06 6.68517e-06 0.0831091)
(3.45876e-06 -5.51177e-06 0.0677527)
(5.46604e-06 -3.49191e-06 0.0677589)
(-4.08121e-06 5.55188e-06 0.0678166)
(-5.52761e-06 4.0935e-06 0.0678226)
(5.68072e-06 -5.71302e-06 0.0830567)
(-2.06412e-06 6.89289e-06 0.0709197)
(-1.52748e-06 1.14687e-05 0.0816205)
(3.11129e-05 1.02786e-05 0.115031)
(-2.00488e-05 -2.00932e-05 0.0974816)
(4.30002e-05 2.40528e-05 0.101631)
(2.40454e-05 4.29193e-05 0.101628)
(-3.84923e-05 -3.85021e-05 0.104892)
(-4.00217e-05 -2.13449e-05 0.101721)
(-2.13255e-05 -4.00436e-05 0.101717)
(1.86822e-05 1.86521e-05 0.0974117)
(-2.00248e-05 2.0096e-05 0.0974811)
(2.40247e-05 -4.29647e-05 0.101627)
(4.29438e-05 -2.40417e-05 0.101631)
(-3.84568e-05 3.85227e-05 0.104891)
(-4.00391e-05 2.13619e-05 0.10172)
(-2.12952e-05 4.00489e-05 0.101717)
(1.86196e-05 -1.86808e-05 0.0974114)
(3.11266e-05 -1.02708e-05 0.11503)
(-1.95893e-06 4.5614e-05 0.101664)
(1.2266e-05 -5.24023e-05 0.0995352)
(-6.78318e-06 1.37814e-05 0.092679)
(3.3418e-06 -2.15882e-05 0.0953757)
(-5.79294e-06 4.39327e-05 0.0996113)
(-3.51889e-06 1.85248e-05 0.0954556)
(8.04793e-06 -5.52623e-05 0.101528)
(-1.95996e-06 -4.56055e-05 0.101663)
(1.22986e-05 5.24328e-05 0.0995357)
(-6.76925e-06 -1.37167e-05 0.0926787)
(3.35438e-06 2.15437e-05 0.0953766)
(-3.51097e-06 -1.84698e-05 0.0954557)
(-5.75178e-06 -4.38959e-05 0.0996107)
(8.10802e-06 5.52769e-05 0.101528)
(-4.56206e-05 -1.96363e-06 0.101663)
(5.2433e-05 1.2254e-05 0.0995341)
(-1.37375e-05 -6.79865e-06 0.0926788)
(2.15949e-05 3.30806e-06 0.0953752)
(-1.85228e-05 -3.5198e-06 0.0954552)
(-4.39027e-05 -5.80339e-06 0.0996102)
(5.52455e-05 8.04106e-06 0.101527)
(-4.2298e-05 8.21395e-07 0.103337)
(-1.73168e-05 -4.27915e-07 0.0985998)
(2.45419e-05 1.55218e-06 0.0974697)
(5.70056e-05 8.00888e-07 0.103929)
(-1.77614e-05 -1.07461e-06 0.0975483)
(-4.04716e-05 6.58509e-07 0.104056)
(5.66877e-05 3.95523e-06 0.103182)
(-4.55592e-05 1.96531e-06 0.101662)
(5.24426e-05 -1.22341e-05 0.099533)
(-1.36961e-05 6.75715e-06 0.0926787)
(2.15891e-05 -3.26021e-06 0.0953751)
(-1.84686e-05 3.52248e-06 0.0954553)
(-4.38681e-05 5.77464e-06 0.0996095)
(5.52847e-05 -8.01071e-06 0.101527)
(-4.23245e-05 -7.79242e-07 0.103337)
(-1.73203e-05 4.71437e-07 0.0985998)
(5.70081e-05 -7.64146e-07 0.103929)
(2.45152e-05 -1.47917e-06 0.0974697)
(-4.04678e-05 -6.36089e-07 0.104056)
(-1.77391e-05 1.11258e-06 0.0975483)
(5.67017e-05 -3.92526e-06 0.103182)
(-1.72093e-05 9.89148e-06 0.108269)
(-4.41319e-05 -4.41339e-05 0.104731)
(2.05622e-05 2.05556e-05 0.113157)
(-1.49827e-05 8.56182e-06 0.108215)
(8.55506e-06 -1.4972e-05 0.108214)
(-4.23485e-05 -4.23658e-05 0.104677)
(1.87932e-05 1.87795e-05 0.113167)
(-1.2859e-05 7.32222e-06 0.108162)
(7.31617e-06 -1.28532e-05 0.108162)
(-4.07368e-05 -4.07757e-05 0.104627)
(1.70224e-05 1.69965e-05 0.113171)
(-1.08466e-05 6.16257e-06 0.108112)
(6.17135e-06 -1.08534e-05 0.108111)
(-3.92574e-05 -3.93085e-05 0.10458)
(1.52728e-05 1.5239e-05 0.113168)
(-8.9533e-06 5.08966e-06 0.108063)
(5.09168e-06 -8.95992e-06 0.108062)
(-3.78726e-05 -3.7935e-05 0.104536)
(1.35543e-05 1.35204e-05 0.113161)
(-7.20172e-06 4.1166e-06 0.108017)
(4.11163e-06 -7.20913e-06 0.108016)
(-3.6647e-05 -3.67034e-05 0.104496)
(1.1898e-05 1.18679e-05 0.113149)
(-5.59436e-06 3.22971e-06 0.107973)
(3.22293e-06 -5.60951e-06 0.107972)
(-3.55386e-05 -3.55919e-05 0.104458)
(1.03202e-05 1.02984e-05 0.113134)
(-4.15842e-06 2.43223e-06 0.107931)
(2.41701e-06 -4.17796e-06 0.10793)
(-3.45724e-05 -3.46251e-05 0.104424)
(8.82162e-06 8.82697e-06 0.113116)
(-2.90471e-06 1.77045e-06 0.107892)
(1.72145e-06 -2.92293e-06 0.107891)
(-3.37708e-05 -3.38081e-05 0.104393)
(7.43119e-06 7.4659e-06 0.113095)
(-1.8381e-06 1.21485e-06 0.107855)
(1.12875e-06 -1.84944e-06 0.107854)
(-3.31307e-05 -3.31214e-05 0.104364)
(6.1576e-06 6.24315e-06 0.113074)
(-9.59189e-07 8.12576e-07 0.107821)
(6.69357e-07 -9.50472e-07 0.10782)
(-3.266e-05 -3.25766e-05 0.104338)
(5.0064e-06 5.1482e-06 0.113052)
(-2.56179e-07 5.32385e-07 0.10779)
(3.63535e-07 -2.24482e-07 0.107789)
(-3.23482e-05 -3.21809e-05 0.104315)
(3.9839e-06 4.16067e-06 0.113029)
(2.92607e-07 3.45311e-07 0.107762)
(1.62593e-07 3.72114e-07 0.107761)
(-3.2131e-05 -3.18823e-05 0.104295)
(3.05156e-06 3.23862e-06 0.113007)
(7.6021e-07 1.93366e-07 0.107736)
(5.73947e-08 8.90037e-07 0.107736)
(-3.20231e-05 -3.17054e-05 0.104277)
(2.1605e-06 2.3145e-06 0.112986)
(1.23332e-06 4.24652e-08 0.107714)
(-1.35886e-08 1.39999e-06 0.107714)
(-3.18881e-05 -3.15852e-05 0.104262)
(1.35463e-06 1.39511e-06 0.112965)
(1.71857e-06 -1.21107e-07 0.107695)
(-6.00645e-08 1.85918e-06 0.107695)
(-3.16228e-05 -3.15091e-05 0.10425)
(6.26833e-07 5.17171e-07 0.112944)
(2.18015e-06 -3.06639e-07 0.107679)
(-1.38379e-07 2.28898e-06 0.107679)
(-3.12263e-05 -3.13456e-05 0.104239)
(-1.4407e-07 -4.28621e-07 0.112924)
(2.73043e-06 -5.65321e-07 0.107664)
(-2.8224e-07 2.7774e-06 0.107664)
(-3.07256e-05 -3.10736e-05 0.104231)
(-9.09375e-07 -1.34519e-06 0.112903)
(3.28023e-06 -9.26932e-07 0.107652)
(-6.04827e-07 3.28949e-06 0.107651)
(-3.02381e-05 -3.06977e-05 0.104224)
(-1.63382e-06 -2.13462e-06 0.112882)
(3.82177e-06 -1.39549e-06 0.107641)
(-1.09775e-06 3.77595e-06 0.107639)
(-2.97932e-05 -3.02318e-05 0.104218)
(-2.40047e-06 -2.84414e-06 0.11286)
(4.3598e-06 -1.83212e-06 0.10763)
(-1.61319e-06 4.24254e-06 0.107628)
(-2.93856e-05 -2.96763e-05 0.104213)
(-3.10597e-06 -3.41824e-06 0.112838)
(4.79219e-06 -2.15716e-06 0.107621)
(-2.03351e-06 4.63872e-06 0.107617)
(-2.90993e-05 -2.92004e-05 0.104209)
(-3.65445e-06 -3.80132e-06 0.112816)
(5.07876e-06 -2.36486e-06 0.107611)
(-2.26653e-06 4.93433e-06 0.107607)
(-2.8945e-05 -2.89056e-05 0.104206)
(-3.98589e-06 -3.99476e-06 0.112794)
(5.18356e-06 -2.36881e-06 0.107602)
(-2.36534e-06 5.0885e-06 0.107598)
(-2.89007e-05 -2.87758e-05 0.104203)
(-4.12156e-06 -4.00233e-06 0.112774)
(5.07252e-06 -2.2248e-06 0.107594)
(-2.29416e-06 5.00854e-06 0.10759)
(-2.89625e-05 -2.87973e-05 0.1042)
(-4.02424e-06 -3.84583e-06 0.112755)
(4.67355e-06 -1.96792e-06 0.107586)
(-2.06822e-06 4.68158e-06 0.107583)
(-2.91289e-05 -2.9008e-05 0.104199)
(-3.71739e-06 -3.53445e-06 0.112739)
(4.04951e-06 -1.60383e-06 0.10758)
(-1.80233e-06 4.03929e-06 0.107576)
(-2.94872e-05 -2.94754e-05 0.104198)
(-3.13695e-06 -2.94386e-06 0.112726)
(3.20245e-06 -1.23464e-06 0.107574)
(-1.36813e-06 3.15982e-06 0.107571)
(-3.00953e-05 -3.00454e-05 0.104198)
(-2.3759e-06 -2.27168e-06 0.112715)
(2.20381e-06 -8.34978e-07 0.107569)
(-9.32713e-07 2.24626e-06 0.107566)
(-3.08261e-05 -3.08222e-05 0.104197)
(-1.71439e-06 -1.62047e-06 0.112708)
(1.27149e-06 -4.43469e-07 0.107565)
(-5.55681e-07 1.18388e-06 0.107562)
(-3.14493e-05 -3.1634e-05 0.104196)
(-1.21679e-06 -1.17241e-06 0.112703)
(5.47106e-07 -1.62769e-07 0.107562)
(-1.9472e-07 3.40157e-07 0.107559)
(-3.20335e-05 -3.22263e-05 0.104195)
(-8.74814e-07 -9.22801e-07 0.1127)
(2.59344e-08 5.2426e-09 0.10756)
(1.23061e-07 -6.01432e-08 0.107557)
(-3.25073e-05 -3.25765e-05 0.104194)
(-8.12665e-07 -8.173e-07 0.112699)
(-1.71015e-07 1.48711e-07 0.10756)
(1.84369e-07 -2.61197e-07 0.107556)
(-3.2737e-05 -3.28902e-05 0.104192)
(-7.8634e-07 -8.93181e-07 0.112698)
(-2.71072e-07 1.35337e-07 0.107559)
(2.26786e-07 -3.49982e-07 0.107556)
(-3.28141e-05 -3.29762e-05 0.104192)
(-7.99513e-07 -9.77289e-07 0.112697)
(-2.17615e-07 1.82478e-07 0.107559)
(2.94908e-07 -2.94393e-07 0.107555)
(-3.28333e-05 -3.29972e-05 0.104191)
(-8.66543e-07 -9.7014e-07 0.112696)
(-2.12816e-07 1.93379e-07 0.107559)
(2.91131e-07 -3.35189e-07 0.107556)
(-3.2897e-05 -3.29676e-05 0.104191)
(-9.35169e-07 -9.14963e-07 0.112696)
(-2.05216e-07 3.46745e-07 0.10756)
(3.31765e-07 -2.83077e-07 0.107556)
(-3.29592e-05 -3.29551e-05 0.10419)
(-9.9985e-07 -8.7775e-07 0.112696)
(-1.63445e-07 4.65095e-07 0.10756)
(3.45404e-07 -2.32807e-07 0.107556)
(-3.30027e-05 -3.29641e-05 0.10419)
(-9.8191e-07 -9.51576e-07 0.112697)
(-1.88683e-07 4.56839e-07 0.107561)
(3.65212e-07 -2.77349e-07 0.107557)
(-3.29974e-05 -3.2974e-05 0.104191)
(-9.77078e-07 -9.89142e-07 0.112698)
(-1.94634e-07 4.84989e-07 0.107561)
(5.51234e-07 -1.81702e-07 0.107557)
(-3.30435e-05 -3.2993e-05 0.104191)
(-1.031e-06 -9.10131e-07 0.1127)
(-1.45084e-07 6.01977e-07 0.107562)
(5.87806e-07 -2.50051e-08 0.107559)
(-3.30568e-05 -3.29234e-05 0.104191)
(-1.10201e-06 -1.02129e-06 0.112703)
(-5.29059e-08 5.42792e-07 0.107563)
(4.85866e-07 7.52542e-08 0.10756)
(-3.30172e-05 -3.28513e-05 0.104191)
(-1.26734e-06 -1.31586e-06 0.112706)
(1.60006e-08 4.09455e-07 0.107565)
(4.78896e-07 2.42528e-07 0.107563)
(-3.28935e-05 -3.26773e-05 0.104192)
(-1.66379e-06 -1.83519e-06 0.112711)
(1.51832e-07 4.93855e-07 0.107568)
(5.5134e-07 4.5923e-07 0.107567)
(-3.25239e-05 -3.21996e-05 0.104193)
(-2.68218e-06 -2.85196e-06 0.112717)
(3.23108e-07 8.03987e-07 0.107573)
(8.48798e-07 5.17535e-07 0.107572)
(-3.10805e-05 -3.07874e-05 0.104196)
(-5.01739e-06 -5.04195e-06 0.112726)
(1.13365e-08 2.04215e-06 0.107579)
(2.02377e-06 1.84488e-07 0.107579)
(-2.64067e-05 -2.6065e-05 0.104209)
(-1.46175e-05 -1.45188e-05 0.112734)
(1.8319e-06 3.74666e-06 0.107592)
(3.67766e-06 2.06668e-06 0.107593)
(-1.09436e-05 -1.05754e-05 0.10426)
(-1.55065e-05 -1.53641e-05 0.112884)
(0.000114466 -5.55858e-05 0.107873)
(-5.56465e-05 0.000114598 0.107874)
(3.38217e-05 3.40681e-05 0.104638)
(-3.88774e-05 -3.88997e-05 0.104849)
(-9.94094e-06 1.72907e-05 0.108266)
(8.9448e-06 1.55504e-05 0.108226)
(-8.93996e-06 1.55995e-05 0.108225)
(-4.4136e-05 4.41103e-05 0.104731)
(3.89013e-05 -3.88762e-05 0.104849)
(1.55433e-05 8.87885e-06 0.108227)
(1.55754e-05 -8.91218e-06 0.108225)
(-1.72218e-05 -9.89593e-06 0.108266)
(-1.55277e-05 8.89195e-06 0.108228)
(-1.5532e-05 -8.90157e-06 0.108225)
(-3.88739e-05 3.892e-05 0.104848)
(-9.87144e-06 -1.71913e-05 0.108268)
(8.8736e-06 -1.55181e-05 0.108228)
(-8.86833e-06 -1.55128e-05 0.108227)
(3.89136e-05 3.8894e-05 0.104848)
(4.23948e-05 4.2351e-05 0.104678)
(-3.93385e-05 -3.9368e-05 0.104795)
(8.61601e-06 1.49968e-05 0.108213)
(-8.61123e-06 1.50504e-05 0.108212)
(7.6967e-06 1.3398e-05 0.108173)
(-7.6779e-06 1.34437e-05 0.108172)
(-4.23725e-05 4.23344e-05 0.104677)
(3.93687e-05 -3.93529e-05 0.104795)
(1.4996e-05 8.55008e-06 0.108214)
(1.50288e-05 -8.58696e-06 0.108211)
(1.3404e-05 7.62519e-06 0.108174)
(1.34204e-05 -7.66317e-06 0.108172)
(-1.4984e-05 -8.58073e-06 0.108212)
(-1.33855e-05 7.63006e-06 0.108175)
(-1.33842e-05 -7.66587e-06 0.108172)
(4.23409e-05 -4.23902e-05 0.104677)
(-3.93534e-05 3.93796e-05 0.104794)
(-8.54798e-06 -1.49662e-05 0.108214)
(7.61742e-06 -1.33751e-05 0.108175)
(-7.60416e-06 -1.33739e-05 0.108174)
(3.93871e-05 3.93457e-05 0.104794)
(4.07934e-05 4.07432e-05 0.104627)
(-3.97368e-05 -3.97737e-05 0.104745)
(7.38878e-06 1.28705e-05 0.10816)
(-7.37601e-06 1.29184e-05 0.108159)
(6.53117e-06 1.13595e-05 0.108122)
(-6.51742e-06 1.13928e-05 0.108121)
(-4.07703e-05 4.07264e-05 0.104627)
(3.97498e-05 -3.97535e-05 0.104745)
(1.28785e-05 7.3204e-06 0.108162)
(1.28966e-05 -7.36367e-06 0.108159)
(1.13684e-05 6.45224e-06 0.108123)
(1.13815e-05 -6.51902e-06 0.10812)
(-1.28594e-05 -7.36481e-06 0.10816)
(-1.13425e-05 6.44813e-06 0.108124)
(-1.13318e-05 -6.50572e-06 0.108121)
(4.07077e-05 -4.07786e-05 0.104627)
(-3.97616e-05 3.97673e-05 0.104744)
(-7.30369e-06 -1.28536e-05 0.108161)
(6.45525e-06 -1.13496e-05 0.108123)
(-6.43686e-06 -1.13369e-05 0.108123)
(3.97934e-05 3.97365e-05 0.104744)
(3.9312e-05 3.9258e-05 0.10458)
(-4.00708e-05 -4.011e-05 0.104698)
(6.24421e-06 1.0858e-05 0.10811)
(-6.23617e-06 1.08956e-05 0.108109)
(5.44724e-06 9.42599e-06 0.108073)
(-5.4363e-06 9.45453e-06 0.108072)
(-3.92607e-05 3.91972e-05 0.10458)
(4.00897e-05 -4.0105e-05 0.104698)
(1.08697e-05 6.16325e-06 0.108111)
(1.08845e-05 -6.24082e-06 0.108108)
(9.44151e-06 5.37264e-06 0.108074)
(9.44166e-06 -5.45265e-06 0.108071)
(-1.08376e-05 -6.22121e-06 0.108109)
(-9.42165e-06 5.35615e-06 0.108075)
(-9.40759e-06 -5.43222e-06 0.108072)
(3.92154e-05 -3.9303e-05 0.10458)
(-4.01049e-05 4.00854e-05 0.104697)
(-6.14736e-06 -1.0846e-05 0.10811)
(5.35846e-06 -9.42458e-06 0.108074)
(-5.35298e-06 -9.42458e-06 0.108074)
(4.01361e-05 4.00645e-05 0.104697)
(3.79507e-05 3.78953e-05 0.104537)
(-4.03605e-05 -4.0394e-05 0.104654)
(5.1783e-06 8.95632e-06 0.108061)
(-5.17493e-06 8.98562e-06 0.10806)
(4.44456e-06 7.6282e-06 0.108026)
(-4.45458e-06 7.64612e-06 0.108025)
(-3.79136e-05 3.78385e-05 0.104537)
(4.03436e-05 -4.03809e-05 0.104654)
(8.97151e-06 5.101e-06 0.108063)
(8.97573e-06 -5.19902e-06 0.10806)
(7.64184e-06 4.3708e-06 0.108027)
(7.63438e-06 -4.47832e-06 0.108024)
(-8.94481e-06 -5.17171e-06 0.10806)
(-7.63168e-06 4.35413e-06 0.108028)
(-7.61291e-06 -4.45428e-06 0.108025)
(3.78399e-05 -3.79541e-05 0.104536)
(-4.04091e-05 4.03591e-05 0.104653)
(-5.0898e-06 -8.96173e-06 0.108062)
(4.36043e-06 -7.6403e-06 0.108027)
(-4.3655e-06 -7.63454e-06 0.108027)
(4.03988e-05 4.03338e-05 0.104653)
(3.6698e-05 3.66511e-05 0.104496)
(-4.05633e-05 -4.05877e-05 0.104614)
(4.1961e-06 7.19327e-06 0.108015)
(-4.2209e-06 7.21445e-06 0.108014)
(3.53199e-06 5.97791e-06 0.107981)
(-3.57242e-06 5.9879e-06 0.10798)
(-3.66881e-05 3.6592e-05 0.104496)
(4.0533e-05 -4.05974e-05 0.104614)
(7.20703e-06 4.12258e-06 0.108016)
(7.20298e-06 -4.24084e-06 0.108013)
(5.98221e-06 3.45924e-06 0.107983)
(5.9703e-06 -3.58317e-06 0.10798)
(-7.18235e-06 -4.21353e-06 0.108014)
(-5.98976e-06 3.45024e-06 0.107984)
(-5.96606e-06 -3.55229e-06 0.107981)
(3.65691e-05 -3.6713e-05 0.104496)
(-4.06053e-05 4.05245e-05 0.104613)
(-4.12617e-06 -7.20512e-06 0.108015)
(3.44393e-06 -6.00267e-06 0.107982)
(-3.47206e-06 -5.98758e-06 0.107982)
(4.05939e-05 4.05313e-05 0.104613)
(3.55781e-05 3.55433e-05 0.104459)
(-4.07087e-05 -4.07091e-05 0.104576)
(3.30403e-06 5.58359e-06 0.107971)
(-3.36435e-06 5.59385e-06 0.10797)
(2.70589e-06 4.48913e-06 0.107939)
(-2.77319e-06 4.4747e-06 0.107938)
(-3.56042e-05 3.54792e-05 0.104459)
(4.06212e-05 -4.07323e-05 0.104576)
(5.58525e-06 3.23677e-06 0.107972)
(5.57502e-06 -3.37265e-06 0.107969)
(4.47916e-06 2.65079e-06 0.107941)
(4.46398e-06 -2.79976e-06 0.107937)
(-5.57732e-06 -3.34192e-06 0.10797)
(-4.50825e-06 2.61867e-06 0.107941)
(-4.48615e-06 -2.75021e-06 0.107938)
(3.54672e-05 -3.56416e-05 0.104458)
(-4.07466e-05 4.06213e-05 0.104575)
(-3.25749e-06 -5.59914e-06 0.107971)
(2.61863e-06 -4.52892e-06 0.10794)
(-2.67297e-06 -4.50485e-06 0.10794)
(4.07111e-05 4.06467e-05 0.104575)
(3.45858e-05 3.45769e-05 0.104425)
(-4.07657e-05 -4.07304e-05 0.104542)
(2.50825e-06 4.13924e-06 0.107929)
(-2.60005e-06 4.13497e-06 0.107928)
(1.96791e-06 3.17621e-06 0.1079)
(-2.11099e-06 3.16239e-06 0.107898)
(-3.4655e-05 3.44911e-05 0.104424)
(4.06518e-05 -4.07715e-05 0.104542)
(4.12015e-06 2.45112e-06 0.107931)
(4.11152e-06 -2.61707e-06 0.107927)
(3.14293e-06 1.94376e-06 0.107901)
(3.13098e-06 -2.11731e-06 0.107898)
(-4.13942e-06 -2.55957e-06 0.107928)
(-3.21329e-06 1.93663e-06 0.107901)
(-3.18215e-06 -2.03837e-06 0.107899)
(3.44837e-05 -3.46998e-05 0.104424)
(-4.07976e-05 4.06324e-05 0.104541)
(-2.48542e-06 -4.15717e-06 0.10793)
(1.89748e-06 -3.23118e-06 0.1079)
(-1.97164e-06 -3.19116e-06 0.1079)
(4.07324e-05 4.06786e-05 0.104541)
(3.37368e-05 3.37665e-05 0.104394)
(-4.0731e-05 -4.06447e-05 0.104511)
(1.78549e-06 2.86976e-06 0.10789)
(-1.95449e-06 2.85769e-06 0.107889)
(1.32593e-06 2.05231e-06 0.107863)
(-1.53334e-06 2.02798e-06 0.107861)
(-3.38555e-05 3.36835e-05 0.104393)
(4.05752e-05 -4.06977e-05 0.104511)
(2.82798e-06 1.77354e-06 0.107892)
(2.82146e-06 -1.95297e-06 0.107888)
(1.98295e-06 1.35312e-06 0.107864)
(1.97735e-06 -1.52505e-06 0.10786)
(-2.88395e-06 -1.87086e-06 0.107889)
(-2.09908e-06 1.34854e-06 0.107864)
(-2.067e-06 -1.43367e-06 0.107861)
(3.36542e-05 -3.3907e-05 0.104392)
(-4.0756e-05 4.0562e-05 0.10451)
(-1.81507e-06 -2.88994e-06 0.10789)
(1.27419e-06 -2.11238e-06 0.107863)
(-1.39543e-06 -2.06082e-06 0.107862)
(4.06608e-05 4.06508e-05 0.10451)
(3.30256e-05 3.31089e-05 0.104365)
(-4.06198e-05 -4.04669e-05 0.104483)
(1.17134e-06 1.79635e-06 0.107854)
(-1.40268e-06 1.77751e-06 0.107852)
(8.10377e-07 1.12982e-06 0.107828)
(-1.07575e-06 1.1059e-06 0.107826)
(-3.31974e-05 3.30282e-05 0.104364)
(4.04062e-05 -4.05022e-05 0.104482)
(1.71618e-06 1.21489e-06 0.107855)
(1.71943e-06 -1.39104e-06 0.107852)
(1.01023e-06 9.04509e-07 0.10783)
(1.01879e-06 -1.03437e-06 0.107826)
(-1.81704e-06 -1.29077e-06 0.107853)
(-1.17592e-06 9.03514e-07 0.107829)
(-1.15234e-06 -9.20989e-07 0.107827)
(3.29535e-05 -3.32282e-05 0.104364)
(-4.06006e-05 4.04226e-05 0.104481)
(-1.26523e-06 -1.80447e-06 0.107854)
(7.79543e-07 -1.17167e-06 0.107828)
(-9.44063e-07 -1.10774e-06 0.107828)
(4.04673e-05 4.0529e-05 0.104481)
(3.2479e-05 3.26303e-05 0.10434)
(-4.03928e-05 -4.01654e-05 0.104458)
(6.91554e-07 9.26256e-07 0.10782)
(-9.77445e-07 9.06757e-07 0.107818)
(4.24764e-07 4.08078e-07 0.107797)
(-7.3856e-07 3.84879e-07 0.107795)
(-3.26916e-05 3.2554e-05 0.104338)
(4.01544e-05 -4.02121e-05 0.104456)
(7.91033e-07 8.05134e-07 0.107822)
(8.13008e-07 -9.29232e-07 0.107818)
(2.28296e-07 5.92417e-07 0.107798)
(2.66933e-07 -6.48706e-07 0.107794)
(-9.53887e-07 -8.0526e-07 0.107819)
(-4.29845e-07 6.03686e-07 0.107797)
(-4.31922e-07 -5.12152e-07 0.107795)
(3.24546e-05 -3.27049e-05 0.104338)
(-4.03283e-05 4.02019e-05 0.104456)
(-8.47486e-07 -8.95179e-07 0.10782)
(4.37771e-07 -4.07099e-07 0.107796)
(-6.18307e-07 -3.25285e-07 0.107796)
(4.01766e-05 4.03199e-05 0.104456)
(3.21008e-05 3.23229e-05 0.104317)
(-4.00418e-05 -3.97834e-05 0.104435)
(3.36914e-07 2.50147e-07 0.10779)
(-6.64973e-07 2.33987e-07 0.107787)
(1.64507e-07 -1.48691e-07 0.107768)
(-4.76292e-07 -1.65688e-07 0.107766)
(-3.23304e-05 3.22336e-05 0.104315)
(3.98087e-05 -3.98079e-05 0.104433)
(5.69314e-08 5.23014e-07 0.107791)
(1.0919e-07 -5.63665e-07 0.107787)
(-3.76413e-07 3.80826e-07 0.10777)
(-3.04163e-07 -3.34004e-07 0.107766)
(-2.77053e-07 -4.22401e-07 0.107788)
(1.5013e-07 3.96343e-07 0.107768)
(1.26409e-07 -1.98305e-07 0.107767)
(3.21129e-05 -3.2301e-05 0.104315)
(-3.99355e-05 3.99145e-05 0.104433)
(-5.56188e-07 -1.53225e-07 0.107789)
(2.13335e-07 2.19005e-07 0.107768)
(-4.03237e-07 3.03666e-07 0.107767)
(3.97738e-05 3.99994e-05 0.104433)
(3.18725e-05 3.21189e-05 0.104297)
(-3.96219e-05 -3.93842e-05 0.104416)
(1.07585e-07 -2.75244e-07 0.107762)
(-4.16745e-07 -2.82736e-07 0.107759)
(1.65451e-08 -6.09744e-07 0.107742)
(-2.52871e-07 -6.0707e-07 0.10774)
(-3.20799e-05 3.20447e-05 0.104294)
(3.94645e-05 -3.93976e-05 0.104413)
(-5.07384e-07 3.32622e-07 0.107763)
(-4.22139e-07 -2.59978e-07 0.107759)
(-8.39399e-07 2.33243e-07 0.107744)
(-7.44635e-07 -7.38284e-08 0.10774)
(2.44255e-07 -1.31223e-07 0.10776)
(6.30991e-07 2.42303e-07 0.107742)
(5.78532e-07 3.82872e-08 0.107741)
(3.19353e-05 -3.20121e-05 0.104295)
(-3.94716e-05 3.95902e-05 0.104414)
(-3.60219e-07 4.42108e-07 0.107761)
(8.80367e-08 7.48352e-07 0.107742)
(-2.40713e-07 8.21857e-07 0.107742)
(3.93573e-05 3.96571e-05 0.104414)
(3.17667e-05 3.19818e-05 0.104279)
(-3.91294e-05 -3.89996e-05 0.104398)
(-1.53773e-08 -7.23606e-07 0.107737)
(-1.95893e-07 -7.08373e-07 0.107734)
(-6.14459e-08 -1.05823e-06 0.10772)
(-1.66573e-08 -1.02469e-06 0.107717)
(-3.19079e-05 3.19402e-05 0.104276)
(3.91143e-05 -3.89701e-05 0.104396)
(-9.45774e-07 1.87498e-07 0.107739)
(-8.43332e-07 -1.29127e-08 0.107734)
(-1.234e-06 8.27168e-08 0.107721)
(-1.1381e-06 1.57749e-07 0.107717)
(6.88351e-07 9.08162e-08 0.107735)
(1.09209e-06 9.14357e-08 0.107719)
(1.0258e-06 1.99502e-07 0.107718)
(3.18544e-05 -3.17818e-05 0.104277)
(-3.89707e-05 3.92699e-05 0.104397)
(-1.9827e-07 9.44805e-07 0.107736)
(8.27837e-09 1.25597e-06 0.107719)
(-7.09642e-08 1.29735e-06 0.107719)
(3.89653e-05 3.92795e-05 0.104397)
(3.17348e-05 3.18215e-05 0.104264)
(-3.86493e-05 -3.87328e-05 0.104384)
(-8.30579e-08 -1.18712e-06 0.107715)
(4.93262e-08 -1.13746e-06 0.107712)
(-8.52012e-08 -1.54324e-06 0.1077)
(2.33271e-07 -1.4718e-06 0.107697)
(-3.17266e-05 3.18419e-05 0.104261)
(3.88347e-05 -3.85988e-05 0.104381)
(-1.33813e-06 2.84856e-08 0.107717)
(-1.23695e-06 2.10142e-07 0.107712)
(-1.59144e-06 -1.11905e-07 0.107701)
(-1.51521e-06 3.50405e-07 0.107698)
(1.15215e-06 2.34232e-07 0.107713)
(1.58606e-06 -7.36106e-08 0.107699)
(1.51948e-06 2.98563e-07 0.107699)
(3.18202e-05 -3.15708e-05 0.104262)
(-3.85643e-05 3.89894e-05 0.104382)
(-2.1288e-08 1.4181e-06 0.107715)
(-3.95806e-08 1.73601e-06 0.107699)
(1.44703e-07 1.73328e-06 0.1077)
(3.87279e-05 3.88663e-05 0.104382)
(3.17287e-05 3.15933e-05 0.104251)
(-3.82901e-05 -3.86196e-05 0.104371)
(-8.77583e-08 -1.66725e-06 0.107696)
(2.95427e-07 -1.57812e-06 0.107693)
(-8.46516e-08 -2.01097e-06 0.107682)
(4.85087e-07 -1.88851e-06 0.10768)
(-3.14853e-05 3.16815e-05 0.104248)
(3.86978e-05 -3.841e-05 0.104369)
(-1.67385e-06 -1.70914e-07 0.107697)
(-1.598e-06 3.908e-07 0.107693)
(-1.88404e-06 -3.38913e-07 0.107684)
(-1.84662e-06 5.08294e-07 0.10768)
(1.64183e-06 3.15424e-07 0.107694)
(2.04395e-06 -2.49194e-07 0.107682)
(2.01012e-06 3.60474e-07 0.107681)
(3.17375e-05 -3.13736e-05 0.104249)
(-3.82693e-05 3.87745e-05 0.10437)
(2.0526e-07 1.82453e-06 0.107696)
(-1.03211e-07 2.15892e-06 0.107682)
(4.11118e-07 2.08649e-06 0.107683)
(3.86361e-05 3.85446e-05 0.10437)
(3.15922e-05 3.12164e-05 0.10424)
(-3.80661e-05 -3.86263e-05 0.10436)
(-1.03796e-07 -2.14804e-06 0.107679)
(5.57567e-07 -1.9999e-06 0.107676)
(-1.68598e-07 -2.55204e-06 0.107667)
(7.75113e-07 -2.37966e-06 0.107665)
(-3.11602e-05 3.14119e-05 0.104237)
(3.86739e-05 -3.83548e-05 0.104359)
(-1.9732e-06 -4.15148e-07 0.10768)
(-1.94362e-06 5.52277e-07 0.107676)
(-2.24015e-06 -6.45451e-07 0.107669)
(-2.26481e-06 6.98035e-07 0.107665)
(2.15098e-06 3.79277e-07 0.107678)
(2.56873e-06 -4.84173e-07 0.107667)
(2.5926e-06 4.59693e-07 0.107667)
(3.15516e-05 -3.11119e-05 0.104238)
(-3.81296e-05 3.86594e-05 0.104359)
(4.92554e-07 2.18519e-06 0.10768)
(-2.37796e-07 2.63623e-06 0.107667)
(7.54791e-07 2.50333e-06 0.107668)
(3.86873e-05 3.83543e-05 0.10436)
(3.13726e-05 3.07826e-05 0.104231)
(-3.80151e-05 -3.86683e-05 0.104352)
(-2.08719e-07 -2.71046e-06 0.107664)
(8.58759e-07 -2.52392e-06 0.107662)
(-3.75363e-07 -3.14695e-06 0.107654)
(1.09521e-06 -2.95845e-06 0.107652)
(-3.07449e-05 3.10153e-05 0.104229)
(3.86695e-05 -3.83938e-05 0.104352)
(-2.35882e-06 -7.43393e-07 0.107666)
(-2.39247e-06 7.59029e-07 0.107661)
(-2.70562e-06 -9.89979e-07 0.107655)
(-2.78477e-06 9.04087e-07 0.107651)
(2.75861e-06 5.02607e-07 0.107663)
(3.13154e-06 -8.09341e-07 0.107655)
(3.20918e-06 6.57023e-07 0.107653)
(3.12242e-05 -3.07715e-05 0.104229)
(-3.8142e-05 3.85932e-05 0.10435)
(8.46465e-07 2.62619e-06 0.107665)
(-4.87927e-07 3.15085e-06 0.107654)
(1.12234e-06 2.97615e-06 0.107655)
(3.87689e-05 3.83038e-05 0.104352)
(3.09756e-05 3.03203e-05 0.104223)
(-3.81429e-05 -3.87026e-05 0.104344)
(-4.86014e-07 -3.29874e-06 0.107651)
(1.19675e-06 -3.10941e-06 0.107649)
(-8.03341e-07 -3.68376e-06 0.107642)
(1.47957e-06 -3.55415e-06 0.107641)
(-3.03151e-05 3.05308e-05 0.104223)
(3.86908e-05 -3.8538e-05 0.104345)
(-2.83779e-06 -1.09952e-06 0.107652)
(-2.92978e-06 9.81639e-07 0.107648)
(-3.22114e-06 -1.40902e-06 0.107642)
(-3.35173e-06 1.22345e-06 0.107638)
(3.35893e-06 7.4475e-07 0.107651)
(3.66724e-06 -1.26053e-06 0.107643)
(3.78038e-06 1.02314e-06 0.107642)
(3.07803e-05 -3.04252e-05 0.104222)
(-3.82997e-05 3.85735e-05 0.104343)
(1.24235e-06 3.10032e-06 0.107652)
(-9.57659e-07 3.6317e-06 0.107642)
(1.52391e-06 3.49008e-06 0.107643)
(3.88311e-05 3.83655e-05 0.104345)
(3.04298e-05 2.98883e-05 0.104217)
(-3.84507e-05 -3.87827e-05 0.104339)
(-9.38653e-07 -3.83392e-06 0.107639)
(1.57715e-06 -3.7194e-06 0.107638)
(-1.31957e-06 -4.19421e-06 0.10763)
(1.78869e-06 -4.16027e-06 0.10763)
(-2.99063e-05 2.99957e-05 0.104218)
(3.87732e-05 -3.87535e-05 0.10434)
(-3.39024e-06 -1.52555e-06 0.10764)
(-3.52705e-06 1.31985e-06 0.107636)
(-3.85903e-06 -1.7834e-06 0.107631)
(-3.99781e-06 1.57145e-06 0.107627)
(3.9358e-06 1.13059e-06 0.107639)
(4.20637e-06 -1.72117e-06 0.107633)
(4.31176e-06 1.44058e-06 0.107631)
(3.02164e-05 -3.00458e-05 0.104216)
(-3.8595e-05 3.86331e-05 0.104337)
(1.63211e-06 3.64694e-06 0.107641)
(-1.47796e-06 4.10993e-06 0.10763)
(1.86217e-06 4.04816e-06 0.107632)
(3.88953e-05 3.8565e-05 0.104339)
(2.97598e-05 2.94608e-05 0.104212)
(-3.87694e-05 -3.88688e-05 0.104334)
(-1.46072e-06 -4.33146e-06 0.107628)
(1.8723e-06 -4.33081e-06 0.107628)
(-1.806e-06 -4.61535e-06 0.10762)
(2.04118e-06 -4.68578e-06 0.10762)
(-2.9474e-05 2.94367e-05 0.104214)
(3.88706e-05 -3.89292e-05 0.104336)
(-4.04267e-06 -1.87681e-06 0.107629)
(-4.17294e-06 1.66963e-06 0.107624)
(-4.47579e-06 -2.08399e-06 0.10762)
(-4.57628e-06 1.8749e-06 0.107616)
(4.44562e-06 1.54974e-06 0.107628)
(4.67609e-06 -2.0886e-06 0.107623)
(4.72465e-06 1.83078e-06 0.10762)
(2.95717e-05 -2.96324e-05 0.104211)
(-3.8859e-05 3.87326e-05 0.104332)
(1.93499e-06 4.20307e-06 0.10763)
(-1.93399e-06 4.53253e-06 0.107619)
(2.06413e-06 4.56377e-06 0.107622)
(3.89117e-05 3.87722e-05 0.104334)
(2.91748e-05 2.90995e-05 0.104208)
(-3.89319e-05 -3.88599e-05 0.104329)
(-1.9301e-06 -4.73151e-06 0.107618)
(2.10325e-06 -4.81126e-06 0.107618)
(-2.20471e-06 -4.90045e-06 0.10761)
(2.21851e-06 -5.00801e-06 0.10761)
(-2.91082e-05 2.90042e-05 0.10421)
(3.89099e-05 -3.89472e-05 0.104332)
(-4.6264e-06 -2.15225e-06 0.107618)
(-4.71346e-06 1.95449e-06 0.107613)
(-4.89281e-06 -2.23076e-06 0.10761)
(-4.93318e-06 2.12517e-06 0.107605)
(4.82384e-06 1.92134e-06 0.107618)
(5.00077e-06 -2.3205e-06 0.107613)
(4.96459e-06 2.12184e-06 0.10761)
(2.9054e-05 -2.92575e-05 0.104207)
(-3.89097e-05 3.87885e-05 0.104327)
(2.10783e-06 4.69583e-06 0.107619)
(-2.21843e-06 4.85324e-06 0.107609)
(2.1738e-06 4.93342e-06 0.107611)
(3.88523e-05 3.88646e-05 0.10433)
(2.88229e-05 2.89093e-05 0.104205)
(-3.89053e-05 -3.87114e-05 0.104326)
(-2.28091e-06 -4.96292e-06 0.107608)
(2.2741e-06 -5.07887e-06 0.107608)
(-2.36911e-06 -4.94758e-06 0.107601)
(2.32443e-06 -5.07524e-06 0.107601)