/*--------------------------------*- C++ -*----------------------------------*\
| =========                 |                                                 |
| \\      /  F ield         | OpenFOAM: The Open Source CFD Toolbox           |
|  \\    /   O peration     | Version:  v2012                                 |
|   \\  /    A nd           | Website:  www.openfoam.com                      |
|    \\/     M anipulation  |                                                 |
\*---------------------------------------------------------------------------*/
FoamFile
{
    version     2.0;
    format      ascii;
    class       volScalarField;
    location    "250";
    object      epsilon;
}
// * * * * * * * * * * * * * * * * * * * * * * * * * * * * * * * * * * * * * //

dimensions      [0 2 -3 0 0 0 0];


internalField   nonuniform List<scalar> 
85864
(
3.22923e-07
8.70457e-07
1.15654e-06
8.70154e-07
8.70066e-07
8.70447e-07
1.15698e-06
9.15235e-06
9.15441e-06
4.10373e-06
3.2311e-07
1.84007e-05
3.48434e-06
1.83988e-05
1.8402e-05
5.46797e-06
5.47006e-06
3.48324e-06
3.48445e-06
5.63003e-07
2.11627e-06
9.15337e-06
4.10346e-06
5.63111e-07
3.48379e-06
2.1162e-06
5.46973e-06
5.46847e-06
1.83994e-05
9.15328e-06
9.15427e-06
7.09546e-06
2.20231e-05
2.20301e-05
9.15679e-06
7.09691e-06
7.09662e-06
2.20246e-05
1.21881e-05
4.10371e-06
4.75578e-06
1.08099e-05
4.75582e-06
1.08113e-05
1.21863e-05
1.84045e-05
1.84025e-05
1.84058e-05
4.5506e-06
2.82188e-06
5.46858e-06
9.49271e-06
9.49533e-06
2.82305e-06
4.54986e-06
4.55674e-06
2.82341e-06
5.47001e-06
9.49796e-06
9.50042e-06
2.8241e-06
4.55644e-06
9.74248e-06
2.17026e-05
2.17024e-05
2.17079e-05
2.17077e-05
9.74289e-06
2.20288e-05
9.15581e-06
7.09549e-06
7.09504e-06
2.20231e-05
1.21878e-05
4.10355e-06
1.08097e-05
4.75562e-06
1.08111e-05
4.75547e-06
1.21861e-05
4.55691e-06
2.82328e-06
5.47004e-06
9.49669e-06
9.49991e-06
2.82446e-06
4.55655e-06
4.55079e-06
2.82251e-06
5.46872e-06
9.49281e-06
2.82365e-06
9.49527e-06
4.55082e-06
9.7427e-06
2.17016e-05
2.17018e-05
2.17069e-05
2.17071e-05
9.74314e-06
1.84031e-05
9.15572e-06
1.67958e-07
2.68163e-06
1.77849e-06
1.77852e-06
1.15599e-06
1.77857e-06
1.7791e-06
2.68049e-06
2.6816e-06
1.7791e-06
1.77915e-06
1.15632e-06
1.77907e-06
1.77903e-06
2.68132e-06
1.68048e-07
1.62561e-06
2.04327e-06
3.48431e-06
2.87097e-06
2.04303e-06
2.87131e-06
1.62598e-06
1.62557e-06
2.04207e-06
3.48396e-06
2.87044e-06
2.87078e-06
2.04282e-06
1.62573e-06
1.6253e-06
2.04277e-06
3.48431e-06
2.87064e-06
2.87148e-06
2.0428e-06
1.62565e-06
1.42397e-06
2.1173e-06
2.37618e-06
1.28579e-06
2.37723e-06
1.2863e-06
1.42452e-06
1.62499e-06
2.04262e-06
3.48456e-06
2.87057e-06
2.87087e-06
2.04335e-06
1.62682e-06
1.42403e-06
2.11723e-06
1.28609e-06
2.37603e-06
1.28604e-06
2.37707e-06
1.42455e-06
8.7024e-07
1.15663e-06
3.3866e-07
8.94461e-07
8.94668e-07
1.17694e-06
3.54459e-07
9.17651e-07
9.17814e-07
1.19619e-06
3.70124e-07
9.39575e-07
9.39685e-07
1.21417e-06
3.85422e-07
9.59952e-07
9.60044e-07
1.2306e-06
4.00112e-07
9.78539e-07
9.78661e-07
1.24539e-06
4.1398e-07
9.95173e-07
9.95361e-07
1.25852e-06
4.26873e-07
1.00983e-06
1.01011e-06
1.2702e-06
4.38653e-07
1.02258e-06
1.02294e-06
1.28073e-06
4.49304e-07
1.03351e-06
1.03387e-06
1.2896e-06
4.58819e-07
1.04281e-06
1.04311e-06
1.29727e-06
4.67194e-07
1.0506e-06
1.05084e-06
1.30359e-06
4.74437e-07
1.05699e-06
1.05715e-06
1.30821e-06
4.80572e-07
1.06229e-06
1.06239e-06
1.31184e-06
4.85704e-07
1.0667e-06
1.06687e-06
1.315e-06
4.89931e-07
1.07029e-06
1.0706e-06
1.31789e-06
4.93298e-07
1.07309e-06
1.0736e-06
1.32032e-06
4.95951e-07
1.07521e-06
1.07596e-06
1.32231e-06
4.97971e-07
1.07684e-06
1.07766e-06
1.32435e-06
4.99391e-07
1.07775e-06
1.07853e-06
1.32487e-06
5.00144e-07
1.07815e-06
1.07896e-06
1.325e-06
5.00633e-07
1.07812e-06
1.07895e-06
1.32477e-06
5.0082e-07
1.07797e-06
1.07879e-06
1.32475e-06
5.00938e-07
1.07782e-06
1.07867e-06
1.32497e-06
5.01188e-07
1.07767e-06
1.07859e-06
1.32474e-06
5.01257e-07
1.07767e-06
1.07856e-06
1.32497e-06
5.01393e-07
1.07771e-06
1.07857e-06
1.32493e-06
5.01441e-07
1.07772e-06
1.07859e-06
1.32467e-06
5.01489e-07
1.07776e-06
1.07851e-06
1.32463e-06
5.01537e-07
1.0778e-06
1.07839e-06
1.32371e-06
5.01531e-07
1.07786e-06
1.07832e-06
1.3238e-06
5.01691e-07
1.07791e-06
1.07827e-06
1.32419e-06
5.01749e-07
1.07794e-06
1.07824e-06
1.3239e-06
5.01887e-07
1.07801e-06
1.07819e-06
1.32413e-06
5.01951e-07
1.07814e-06
1.07812e-06
1.32466e-06
5.01987e-07
1.07821e-06
1.07826e-06
1.32513e-06
5.0207e-07
1.0783e-06
1.0783e-06
1.32499e-06
5.02106e-07
1.07833e-06
1.07826e-06
1.32504e-06
5.02115e-07
1.07829e-06
1.07825e-06
1.32506e-06
5.02096e-07
1.07828e-06
1.07829e-06
1.32534e-06
5.02064e-07
1.07833e-06
1.07835e-06
1.32565e-06
5.02009e-07
1.0784e-06
1.07838e-06
1.3259e-06
5.01941e-07
1.07845e-06
1.07838e-06
1.32616e-06
5.0187e-07
1.07854e-06
1.07838e-06
1.32645e-06
5.01859e-07
1.07868e-06
1.07841e-06
1.32641e-06
5.0176e-07
1.07884e-06
1.07845e-06
1.3255e-06
5.00679e-07
1.07854e-06
1.07806e-06
1.3245e-06
4.81001e-07
1.01583e-06
1.01532e-06
1.28037e-06
1.17118e-06
8.7033e-07
8.88518e-07
8.8872e-07
1.15676e-06
1.17131e-06
8.88428e-07
8.88808e-07
8.70344e-07
8.88596e-07
8.88673e-07
1.17158e-06
8.70299e-07
8.88814e-07
8.8866e-07
1.17125e-06
1.17697e-06
1.19075e-06
8.94313e-07
8.94526e-07
9.11986e-07
9.12207e-07
1.17715e-06
1.19083e-06
8.94233e-07
8.94605e-07
9.11891e-07
9.12251e-07
8.94463e-07
9.12143e-07
9.12082e-07
1.17729e-06
1.19104e-06
8.94457e-07
9.12317e-07
9.12101e-07
1.19074e-06
1.19627e-06
1.20903e-06
9.17473e-07
9.17697e-07
9.34303e-07
9.3451e-07
1.19647e-06
1.20915e-06
9.17383e-07
9.17735e-07
9.34194e-07
9.34511e-07
9.17563e-07
9.34504e-07
9.3434e-07
1.19663e-06
1.20926e-06
9.17583e-07
9.3462e-07
9.34352e-07
1.20896e-06
1.2143e-06
1.22578e-06
9.39419e-07
9.39621e-07
9.55196e-07
9.55347e-07
1.21447e-06
1.22584e-06
9.39315e-07
9.39622e-07
9.55073e-07
9.55352e-07
9.39456e-07
9.55395e-07
9.5519e-07
1.21451e-06
1.226e-06
9.3946e-07
9.55481e-07
9.55156e-07
1.22577e-06
1.23079e-06
1.24092e-06
9.59874e-07
9.60016e-07
9.74391e-07
9.7445e-07
1.23091e-06
1.241e-06
9.59751e-07
9.60034e-07
9.74237e-07
9.74522e-07
9.59868e-07
9.7455e-07
9.74338e-07
1.23103e-06
1.24115e-06
9.59818e-07
9.7465e-07
9.74246e-07
1.24086e-06
1.24566e-06
1.25447e-06
9.7858e-07
9.78623e-07
9.91668e-07
9.91616e-07
1.24577e-06
1.25458e-06
9.78429e-07
9.78727e-07
9.91504e-07
9.91825e-07
9.78524e-07
9.91769e-07
9.91541e-07
1.24595e-06
1.25482e-06
9.78422e-07
9.91928e-07
9.91432e-07
1.25437e-06
1.25896e-06
1.26638e-06
9.95347e-07
9.95284e-07
1.00693e-06
1.0068e-06
1.25902e-06
1.26669e-06
9.95196e-07
9.95533e-07
1.00681e-06
1.00718e-06
9.95203e-07
1.00699e-06
1.00673e-06
1.25928e-06
1.26671e-06
9.95102e-07
1.00724e-06
1.00663e-06
1.26628e-06
1.27068e-06
1.27734e-06
1.0101e-06
1.00998e-06
1.02017e-06
1.02005e-06
1.27072e-06
1.27761e-06
1.01e-06
1.01039e-06
1.02011e-06
1.0206e-06
1.00989e-06
1.02024e-06
1.01995e-06
1.27104e-06
1.27739e-06
1.00981e-06
1.02059e-06
1.0199e-06
1.27707e-06
1.28106e-06
1.28639e-06
1.02285e-06
1.02275e-06
1.03146e-06
1.0314e-06
1.28118e-06
1.28671e-06
1.02281e-06
1.02332e-06
1.03145e-06
1.03202e-06
1.02265e-06
1.03162e-06
1.0313e-06
1.28149e-06
1.2867e-06
1.02261e-06
1.03198e-06
1.03131e-06
1.28625e-06
1.28971e-06
1.2941e-06
1.03373e-06
1.03367e-06
1.04108e-06
1.04105e-06
1.28966e-06
1.29419e-06
1.03372e-06
1.03429e-06
1.04105e-06
1.04161e-06
1.03359e-06
1.04128e-06
1.04102e-06
1.29017e-06
1.2944e-06
1.03362e-06
1.04159e-06
1.04108e-06
1.29412e-06
1.29717e-06
1.30066e-06
1.04299e-06
1.04296e-06
1.04916e-06
1.04915e-06
1.29685e-06
1.30035e-06
1.04297e-06
1.0435e-06
1.04913e-06
1.04959e-06
1.04297e-06
1.04931e-06
1.04921e-06
1.29749e-06
1.30088e-06
1.04303e-06
1.04958e-06
1.04928e-06
1.30075e-06
1.30315e-06
1.30566e-06
1.05075e-06
1.05074e-06
1.05579e-06
1.05579e-06
1.30279e-06
1.30543e-06
1.05075e-06
1.05117e-06
1.05585e-06
1.05617e-06
1.0508e-06
1.05593e-06
1.05572e-06
1.30357e-06
1.3059e-06
1.0509e-06
1.05609e-06
1.05589e-06
1.30566e-06
1.30791e-06
1.30973e-06
1.05715e-06
1.05714e-06
1.06116e-06
1.06129e-06
1.30773e-06
1.30971e-06
1.05723e-06
1.05751e-06
1.06127e-06
1.06164e-06
1.05703e-06
1.0614e-06
1.06098e-06
1.30821e-06
1.30996e-06
1.05722e-06
1.06149e-06
1.06112e-06
1.30942e-06
1.31192e-06
1.31307e-06
1.06232e-06
1.06248e-06
1.06558e-06
1.0659e-06
1.31209e-06
1.31336e-06
1.06241e-06
1.06283e-06
1.06558e-06
1.06624e-06
1.06212e-06
1.06594e-06
1.06538e-06
1.31219e-06
1.31358e-06
1.06226e-06
1.06609e-06
1.06553e-06
1.31262e-06
1.31527e-06
1.31604e-06
1.06661e-06
1.06697e-06
1.06928e-06
1.0697e-06
1.31576e-06
1.3161e-06
1.0666e-06
1.0673e-06
1.06921e-06
1.07007e-06
1.06641e-06
1.06967e-06
1.06906e-06
1.31587e-06
1.31686e-06
1.06655e-06
1.06995e-06
1.06921e-06
1.31558e-06
1.31828e-06
1.31837e-06
1.07024e-06
1.07062e-06
1.07232e-06
1.07264e-06
1.31893e-06
1.31906e-06
1.07017e-06
1.07104e-06
1.07225e-06
1.07318e-06
1.07e-06
1.0726e-06
1.07207e-06
1.31901e-06
1.3196e-06
1.07014e-06
1.07308e-06
1.07222e-06
1.31813e-06
1.3211e-06
1.32018e-06
1.07316e-06
1.07353e-06
1.07477e-06
1.07519e-06
1.32125e-06
1.32123e-06
1.0731e-06
1.07406e-06
1.0747e-06
1.07572e-06
1.07289e-06
1.07483e-06
1.0745e-06
1.32203e-06
1.32212e-06
1.07309e-06
1.07555e-06
1.07464e-06
1.32017e-06
1.32299e-06
1.32207e-06
1.07547e-06
1.0759e-06
1.07657e-06
1.07689e-06
1.3231e-06
1.32266e-06
1.07538e-06
1.07643e-06
1.07651e-06
1.07735e-06
1.07525e-06
1.07657e-06
1.07664e-06
1.32423e-06
1.32358e-06
1.0754e-06
1.07737e-06
1.07651e-06
1.32184e-06
1.32386e-06
1.32307e-06
1.07707e-06
1.07737e-06
1.07774e-06
1.07765e-06
1.32437e-06
1.32329e-06
1.07705e-06
1.07783e-06
1.07763e-06
1.07825e-06
1.07719e-06
1.07763e-06
1.07789e-06
1.32531e-06
1.32413e-06
1.07697e-06
1.07845e-06
1.0776e-06
1.32317e-06
1.32465e-06
1.32302e-06
1.07796e-06
1.07801e-06
1.07826e-06
1.07807e-06
1.32488e-06
1.32286e-06
1.07811e-06
1.07866e-06
1.07824e-06
1.07868e-06
1.07833e-06
1.07814e-06
1.07837e-06
1.32577e-06
1.32417e-06
1.07794e-06
1.07894e-06
1.07804e-06
1.32299e-06
1.3256e-06
1.32307e-06
1.07836e-06
1.07819e-06
1.07824e-06
1.07806e-06
1.32561e-06
1.3232e-06
1.07835e-06
1.07884e-06
1.07825e-06
1.07865e-06
1.0785e-06
1.07819e-06
1.07826e-06
1.32579e-06
1.32372e-06
1.07817e-06
1.079e-06
1.07805e-06
1.32278e-06
1.32569e-06
1.32301e-06
1.07828e-06
1.07813e-06
1.07812e-06
1.07791e-06
1.32475e-06
1.32279e-06
1.07834e-06
1.07874e-06
1.07833e-06
1.07853e-06
1.07839e-06
1.07805e-06
1.07815e-06
1.32612e-06
1.32353e-06
1.07814e-06
1.07887e-06
1.07799e-06
1.32243e-06
1.3255e-06
1.32325e-06
1.07818e-06
1.07804e-06
1.07808e-06
1.07782e-06
1.32438e-06
1.32266e-06
1.07835e-06
1.07859e-06
1.07836e-06
1.07838e-06
1.07828e-06
1.0779e-06
1.0783e-06
1.32603e-06
1.32328e-06
1.07808e-06
1.07872e-06
1.07799e-06
1.32265e-06
1.32486e-06
1.32339e-06
1.07822e-06
1.07796e-06
1.07819e-06
1.07789e-06
1.32425e-06
1.3225e-06
1.07861e-06
1.07853e-06
1.07859e-06
1.07834e-06
1.07838e-06
1.07771e-06
1.07839e-06
1.32591e-06
1.32357e-06
1.07818e-06
1.07862e-06
1.0782e-06
1.32307e-06
1.32499e-06
1.3233e-06
1.07827e-06
1.07792e-06
1.07819e-06
1.07797e-06
1.32461e-06
1.32229e-06
1.07875e-06
1.0784e-06
1.0786e-06
1.07838e-06
1.07846e-06
1.07765e-06
1.07837e-06
1.32517e-06
1.32357e-06
1.07823e-06
1.07858e-06
1.07829e-06
1.32274e-06
1.32489e-06
1.32321e-06
1.07828e-06
1.07805e-06
1.07816e-06
1.07794e-06
1.32486e-06
1.32244e-06
1.0787e-06
1.07854e-06
1.07852e-06
1.07853e-06
1.07845e-06
1.0777e-06
1.07827e-06
1.32522e-06
1.323e-06
1.07836e-06
1.07854e-06
1.07828e-06
1.32264e-06
1.3248e-06
1.32318e-06
1.07821e-06
1.078e-06
1.07808e-06
1.07787e-06
1.32497e-06
1.32244e-06
1.07861e-06
1.07866e-06
1.07845e-06
1.07847e-06
1.07837e-06
1.07771e-06
1.07813e-06
1.32541e-06
1.3232e-06
1.07837e-06
1.0786e-06
1.07826e-06
1.32283e-06
1.32479e-06
1.32326e-06
1.07823e-06
1.07797e-06
1.07807e-06
1.07789e-06
1.32499e-06
1.32251e-06
1.07852e-06
1.07859e-06
1.07841e-06
1.07833e-06
1.0782e-06
1.07775e-06
1.07807e-06
1.32479e-06
1.32266e-06
1.07834e-06
1.07854e-06
1.07819e-06
1.32265e-06
1.32487e-06
1.32336e-06
1.07818e-06
1.07798e-06
1.0781e-06
1.07792e-06
1.32505e-06
1.32243e-06
1.07849e-06
1.0784e-06
1.0784e-06
1.07823e-06
1.07816e-06
1.07778e-06
1.07803e-06
1.32422e-06
1.32247e-06
1.07824e-06
1.07844e-06
1.07808e-06
1.32213e-06
1.32498e-06
1.32352e-06
1.07821e-06
1.07802e-06
1.07818e-06
1.07793e-06
1.32499e-06
1.3224e-06
1.07854e-06
1.07829e-06
1.07846e-06
1.07816e-06
1.07814e-06
1.07785e-06
1.07797e-06
1.32407e-06
1.32248e-06
1.07816e-06
1.07832e-06
1.07802e-06
1.32213e-06
1.32513e-06
1.32355e-06
1.07832e-06
1.07806e-06
1.07829e-06
1.07796e-06
1.32491e-06
1.32205e-06
1.07864e-06
1.07832e-06
1.07852e-06
1.07818e-06
1.07805e-06
1.07789e-06
1.07791e-06
1.3241e-06
1.32241e-06
1.07821e-06
1.07826e-06
1.07813e-06
1.32183e-06
1.32515e-06
1.3235e-06
1.07847e-06
1.07807e-06
1.07842e-06
1.07794e-06
1.32461e-06
1.32212e-06
1.07863e-06
1.07827e-06
1.07856e-06
1.07819e-06
1.07804e-06
1.07793e-06
1.07788e-06
1.32399e-06
1.32225e-06
1.07826e-06
1.07822e-06
1.07827e-06
1.32227e-06
1.32511e-06
1.32352e-06
1.07861e-06
1.07813e-06
1.07855e-06
1.07802e-06
1.32469e-06
1.32213e-06
1.07875e-06
1.07829e-06
1.07872e-06
1.0782e-06
1.07806e-06
1.07797e-06
1.07794e-06
1.32381e-06
1.3221e-06
1.07833e-06
1.07816e-06
1.07832e-06
1.32213e-06
1.32513e-06
1.32358e-06
1.07867e-06
1.07816e-06
1.07862e-06
1.07811e-06
1.32468e-06
1.32212e-06
1.07871e-06
1.07838e-06
1.07877e-06
1.07834e-06
1.0781e-06
1.07812e-06
1.07807e-06
1.32417e-06
1.32207e-06
1.07846e-06
1.07808e-06
1.07847e-06
1.32226e-06
1.32519e-06
1.32324e-06
1.07874e-06
1.07831e-06
1.07865e-06
1.07823e-06
1.32467e-06
1.32207e-06
1.07886e-06
1.07838e-06
1.07885e-06
1.07841e-06
1.07827e-06
1.07819e-06
1.07827e-06
1.32474e-06
1.32256e-06
1.0785e-06
1.07821e-06
1.07849e-06
1.32281e-06
1.32481e-06
1.32316e-06
1.07878e-06
1.07837e-06
1.07868e-06
1.0783e-06
1.32449e-06
1.32259e-06
1.07895e-06
1.07858e-06
1.07891e-06
1.07852e-06
1.07841e-06
1.07826e-06
1.07847e-06
1.32497e-06
1.32297e-06
1.07874e-06
1.07825e-06
1.07872e-06
1.32332e-06
1.32479e-06
1.32306e-06
1.07885e-06
1.0784e-06
1.07879e-06
1.07838e-06
1.32422e-06
1.32294e-06
1.07895e-06
1.07853e-06
1.07889e-06
1.0786e-06
1.07855e-06
1.07828e-06
1.07858e-06
1.32456e-06
1.32311e-06
1.07871e-06
1.0782e-06
1.07872e-06
1.32287e-06
1.32556e-06
1.32327e-06
1.07884e-06
1.07839e-06
1.07875e-06
1.07835e-06
1.32457e-06
1.32284e-06
1.0791e-06
1.07863e-06
1.07889e-06
1.07866e-06
1.07858e-06
1.07822e-06
1.07861e-06
1.32473e-06
1.3231e-06
1.07873e-06
1.07817e-06
1.07875e-06
1.3227e-06
1.32586e-06
1.32303e-06
1.07884e-06
1.07838e-06
1.07871e-06
1.07832e-06
1.32533e-06
1.32263e-06
1.07908e-06
1.07867e-06
1.07899e-06
1.07868e-06
1.07862e-06
1.07818e-06
1.07866e-06
1.32471e-06
1.32306e-06
1.07876e-06
1.07818e-06
1.07881e-06
1.32298e-06
1.3252e-06
1.32315e-06
1.07874e-06
1.07833e-06
1.07861e-06
1.07828e-06
1.32462e-06
1.32286e-06
1.07899e-06
1.07868e-06
1.07889e-06
1.0786e-06
1.0787e-06
1.0782e-06
1.07875e-06
1.32471e-06
1.32269e-06
1.07885e-06
1.07823e-06
1.07889e-06
1.32336e-06
1.32475e-06
1.3229e-06
1.07862e-06
1.07832e-06
1.07846e-06
1.07829e-06
1.32449e-06
1.32255e-06
1.0789e-06
1.07862e-06
1.07879e-06
1.07851e-06
1.07881e-06
1.07825e-06
1.07882e-06
1.32526e-06
1.32283e-06
1.07894e-06
1.07824e-06
1.07895e-06
1.32357e-06
1.32449e-06
1.3228e-06
1.07848e-06
1.07836e-06
1.07833e-06
1.07834e-06
1.3251e-06
1.32266e-06
1.07882e-06
1.07856e-06
1.07869e-06
1.07845e-06
1.0789e-06
1.07827e-06
1.07891e-06
1.32538e-06
1.3231e-06
1.07903e-06
1.07822e-06
1.07903e-06
1.32384e-06
1.32443e-06
1.3225e-06
1.0784e-06
1.07845e-06
1.07829e-06
1.0784e-06
1.32528e-06
1.32325e-06
1.07876e-06
1.07853e-06
1.07861e-06
1.07838e-06
1.07903e-06
1.07831e-06
1.07901e-06
1.32506e-06
1.32301e-06
1.07914e-06
1.07817e-06
1.07913e-06
1.32417e-06
1.32504e-06
1.32258e-06
1.07843e-06
1.07856e-06
1.07833e-06
1.07849e-06
1.32494e-06
1.3234e-06
1.07872e-06
1.07849e-06
1.07855e-06
1.07831e-06
1.07918e-06
1.07839e-06
1.07911e-06
1.32466e-06
1.32298e-06
1.0793e-06
1.07815e-06
1.07926e-06
1.32418e-06
1.32502e-06
1.32253e-06
1.07853e-06
1.07869e-06
1.0784e-06
1.07858e-06
1.32509e-06
1.32334e-06
1.07873e-06
1.07849e-06
1.07856e-06
1.07831e-06
1.07931e-06
1.07849e-06
1.07915e-06
1.32457e-06
1.32265e-06
1.07947e-06
1.07813e-06
1.07935e-06
1.32389e-06
1.32459e-06
1.32204e-06
1.07866e-06
1.07884e-06
1.07808e-06
1.07828e-06
1.32506e-06
1.32295e-06
1.07881e-06
1.07855e-06
1.07819e-06
1.07793e-06
1.0794e-06
1.07821e-06
1.07881e-06
1.32425e-06
1.32141e-06
1.07961e-06
1.07773e-06
1.07901e-06
1.32224e-06
1.32302e-06
1.30025e-06
1.07838e-06
1.07857e-06
1.05643e-06
1.05662e-06
1.32401e-06
1.30074e-06
1.07849e-06
1.07823e-06
1.05657e-06
1.0562e-06
1.07911e-06
1.05715e-06
1.05722e-06
1.32271e-06
1.29994e-06
1.07931e-06
1.05662e-06
1.05746e-06
1.30256e-06
1.28036e-06
1.01595e-06
1.01616e-06
1.28074e-06
1.01608e-06
1.01573e-06
4.81188e-07
4.81064e-07
4.81806e-07
1.01658e-06
1.27999e-06
1.01682e-06
4.10614e-06
9.15733e-06
4.10354e-06
1.83994e-05
1.84061e-05
4.10619e-06
9.15992e-06
3.22998e-07
3.23059e-07
3.3505e-07
3.35087e-07
3.3521e-07
3.3517e-07
2.12187e-06
3.48369e-06
5.63092e-07
8.7645e-07
3.48787e-06
5.69141e-07
2.11663e-06
1.84076e-05
2.12201e-06
5.63227e-07
8.76671e-07
5.69282e-07
3.48748e-06
2.11683e-06
5.4678e-06
5.47005e-06
1.16125e-06
5.47063e-06
5.47307e-06
4.11554e-06
9.1643e-06
4.11315e-06
9.16962e-06
1.84109e-05
1.8417e-05
4.11589e-06
9.1667e-06
4.11337e-06
9.17204e-06
3.38785e-07
3.38911e-07
3.38827e-07
3.50939e-07
3.50984e-07
3.51117e-07
3.51035e-07
2.13793e-06
3.49681e-06
5.8629e-07
9.00503e-07
2.13303e-06
3.50069e-06
5.9235e-07
1.84127e-05
1.84192e-05
2.13797e-06
5.8643e-07
3.49692e-06
9.00703e-07
2.13313e-06
5.9249e-07
3.50001e-06
5.4778e-06
5.48009e-06
1.18107e-06
5.48063e-06
5.48288e-06
4.12487e-06
9.1763e-06
4.12221e-06
9.18082e-06
1.84208e-05
1.84262e-05
4.12507e-06
9.17831e-06
4.12271e-06
9.18316e-06
3.54631e-07
3.54766e-07
3.54642e-07
3.66753e-07
3.66809e-07
3.66944e-07
3.66817e-07
2.153e-06
3.50923e-06
6.09043e-07
9.23504e-07
2.14845e-06
3.51242e-06
6.15071e-07
1.84236e-05
1.84296e-05
2.15288e-06
6.09165e-07
3.50931e-06
9.23649e-07
2.14841e-06
6.15188e-07
3.51218e-06
5.48739e-06
5.48942e-06
1.20007e-06
5.48996e-06
5.49191e-06
4.13273e-06
9.18679e-06
4.13055e-06
9.1906e-06
1.84292e-05
1.84343e-05
4.13342e-06
9.18884e-06
4.13111e-06
9.19307e-06
3.70343e-07
3.70481e-07
3.70316e-07
3.82262e-07
3.82314e-07
3.82456e-07
3.82286e-07
2.16658e-06
3.52046e-06
6.31099e-07
9.45189e-07
2.16245e-06
3.52333e-06
6.37045e-07
1.8433e-05
1.84385e-05
2.16645e-06
6.31181e-07
3.5205e-06
9.45285e-07
2.16239e-06
6.37116e-07
3.52334e-06
5.49603e-06
5.49768e-06
1.21757e-06
5.49813e-06
5.49981e-06
4.13994e-06
9.19537e-06
4.13797e-06
9.19913e-06
1.8437e-05
1.8442e-05
4.14037e-06
9.19825e-06
4.1383e-06
9.20143e-06
3.85677e-07
3.85829e-07
3.85619e-07
3.97215e-07
3.97237e-07
3.97413e-07
3.97189e-07
2.17857e-06
3.53027e-06
6.52168e-07
9.65273e-07
2.17484e-06
3.53258e-06
6.57964e-07
1.84413e-05
1.84464e-05
2.17848e-06
6.52223e-07
3.53038e-06
9.65354e-07
2.17481e-06
6.5801e-07
3.53267e-06
5.50324e-06
5.5049e-06
1.23353e-06
5.505e-06
5.50671e-06
4.14587e-06
9.2033e-06
4.14424e-06
9.20663e-06
1.84449e-05
1.84502e-05
4.14621e-06
9.20612e-06
4.14463e-06
9.20895e-06
4.00377e-07
4.00571e-07
4.00306e-07
4.11379e-07
4.1134e-07
4.11585e-07
4.11288e-07
2.18883e-06
3.53858e-06
6.71957e-07
9.83525e-07
2.18559e-06
3.54061e-06
6.77539e-07
1.84491e-05
1.84542e-05
2.18887e-06
6.72013e-07
3.53883e-06
9.83649e-07
2.18564e-06
6.77596e-07
3.54089e-06
5.50959e-06
5.51119e-06
1.24782e-06
5.51093e-06
5.51283e-06
4.15088e-06
9.21025e-06
4.14963e-06
9.21349e-06
1.84538e-05
1.84595e-05
4.15106e-06
9.21284e-06
4.1497e-06
9.21594e-06
4.14227e-07
4.14497e-07
4.14154e-07
4.24571e-07
4.24459e-07
4.24805e-07
4.24408e-07
2.19742e-06
3.54574e-06
6.90167e-07
9.99785e-07
2.19463e-06
3.54764e-06
6.95454e-07
1.84571e-05
1.84625e-05
2.19754e-06
6.90268e-07
3.54597e-06
9.99984e-07
2.1948e-06
6.95564e-07
3.54779e-06
5.51474e-06
5.51675e-06
1.26051e-06
5.51586e-06
5.51792e-06
4.1547e-06
9.21722e-06
4.15387e-06
9.2206e-06
1.84636e-05
1.84697e-05
4.155e-06
9.22004e-06
4.15412e-06
9.22278e-06
4.27078e-07
4.27454e-07
4.27008e-07
4.36656e-07
4.36488e-07
4.36953e-07
4.36437e-07
2.20445e-06
3.55216e-06
7.0658e-07
1.01407e-06
2.20206e-06
3.55348e-06
7.11518e-07
1.84659e-05
1.84717e-05
2.20481e-06
7.06787e-07
3.55231e-06
1.01436e-06
2.20244e-06
7.11751e-07
3.55399e-06
5.51943e-06
5.52152e-06
1.27183e-06
5.52046e-06
5.52258e-06
4.15774e-06
9.22503e-06
4.15708e-06
9.22794e-06
1.84742e-05
1.84804e-05
4.15791e-06
9.22697e-06
4.15729e-06
9.22979e-06
4.38842e-07
4.39328e-07
4.3877e-07
4.47528e-07
4.4737e-07
4.47908e-07
4.47317e-07
2.2102e-06
3.55733e-06
7.21128e-07
1.0264e-06
2.20823e-06
3.55841e-06
7.25676e-07
1.84759e-05
1.84819e-05
2.21071e-06
7.21488e-07
3.55774e-06
1.02677e-06
2.20869e-06
7.26054e-07
3.55878e-06
5.52384e-06
5.52597e-06
1.28189e-06
5.52474e-06
5.52697e-06
4.16045e-06
9.23243e-06
4.15991e-06
9.23544e-06
1.84852e-05
1.84916e-05
4.16054e-06
9.23374e-06
4.15998e-06
9.23712e-06
4.49477e-07
4.5002e-07
4.4941e-07
4.57231e-07
4.57107e-07
4.57639e-07
4.57073e-07
2.21519e-06
3.56172e-06
7.33926e-07
1.03694e-06
2.21348e-06
3.56255e-06
7.38088e-07
1.84863e-05
1.84924e-05
2.21619e-06
7.34369e-07
3.56186e-06
1.03728e-06
2.21489e-06
7.38533e-07
3.56261e-06
5.52782e-06
5.53026e-06
1.29033e-06
5.52859e-06
5.53114e-06
4.16302e-06
9.2395e-06
4.1625e-06
9.24294e-06
1.84969e-05
1.85035e-05
4.16319e-06
9.24175e-06
4.16257e-06
9.24491e-06
4.58997e-07
4.59524e-07
4.58958e-07
4.65796e-07
4.65703e-07
4.66188e-07
4.65709e-07
2.22007e-06
3.56516e-06
7.45156e-07
1.04584e-06
2.21843e-06
3.56571e-06
7.48881e-07
1.84971e-05
1.85038e-05
2.22007e-06
7.4563e-07
3.56509e-06
1.04613e-06
2.21906e-06
7.49377e-07
3.56562e-06
5.53154e-06
5.53405e-06
1.2977e-06
5.53218e-06
5.53487e-06
4.16561e-06
9.24709e-06
4.16507e-06
9.25063e-06
1.85093e-05
1.85162e-05
4.1658e-06
9.24939e-06
4.1652e-06
9.25322e-06
4.67403e-07
4.67878e-07
4.674e-07
4.73225e-07
4.73168e-07
4.7359e-07
4.73157e-07
2.22325e-06
3.56793e-06
7.54862e-07
1.05319e-06
2.22258e-06
3.56837e-06
7.58177e-07
1.85093e-05
1.85163e-05
2.22376e-06
7.55355e-07
3.56766e-06
1.05341e-06
2.22298e-06
7.5866e-07
3.56806e-06
5.53454e-06
5.53767e-06
1.30346e-06
5.53488e-06
5.53807e-06
4.16812e-06
9.25495e-06
4.16762e-06
9.25854e-06
1.8522e-05
1.85289e-05
4.16843e-06
9.25766e-06
4.16783e-06
9.26109e-06
4.74699e-07
4.75109e-07
4.74664e-07
4.7954e-07
4.79577e-07
4.79975e-07
4.79498e-07
2.22667e-06
3.57036e-06
7.63177e-07
1.05924e-06
2.22598e-06
3.5707e-06
7.66111e-07
1.85223e-05
1.85294e-05
2.22605e-06
7.63581e-07
3.57002e-06
1.05935e-06
2.22548e-06
7.66484e-07
3.57041e-06
5.5368e-06
5.53962e-06
1.30769e-06
5.53704e-06
5.53972e-06
4.17079e-06
9.26317e-06
4.17021e-06
9.2663e-06
1.85348e-05
1.85414e-05
4.17132e-06
9.26551e-06
4.17054e-06
9.2686e-06
4.80954e-07
4.81322e-07
4.80835e-07
4.84831e-07
4.84977e-07
4.85363e-07
4.84823e-07
2.22896e-06
3.57264e-06
7.70223e-07
1.06424e-06
2.2283e-06
3.57301e-06
7.72797e-07
1.85353e-05
1.85422e-05
2.22952e-06
7.70568e-07
3.57238e-06
1.06435e-06
2.22848e-06
7.73148e-07
3.57281e-06
5.53928e-06
5.54168e-06
1.31113e-06
5.53969e-06
5.54212e-06
4.1736e-06
9.27092e-06
4.17298e-06
9.27387e-06
1.85465e-05
1.85525e-05
4.17431e-06
9.27282e-06
4.17364e-06
9.27634e-06
4.86235e-07
4.866e-07
4.8605e-07
4.89207e-07
4.89417e-07
4.89806e-07
4.8926e-07
2.2316e-06
3.57512e-06
7.76116e-07
1.0684e-06
2.23106e-06
3.57546e-06
7.78386e-07
1.85471e-05
1.85532e-05
2.23186e-06
7.76509e-07
3.57487e-06
1.06861e-06
2.23079e-06
7.78786e-07
3.57531e-06
5.54199e-06
5.54463e-06
1.31421e-06
5.54248e-06
5.54502e-06
4.17639e-06
9.27765e-06
4.17582e-06
9.28065e-06
1.85565e-05
1.85617e-05
4.17685e-06
9.28042e-06
4.17631e-06
9.28362e-06
4.90584e-07
4.90989e-07
4.90375e-07
4.92715e-07
4.92981e-07
4.93421e-07
4.92868e-07
2.23401e-06
3.57767e-06
7.81022e-07
1.07175e-06
2.23325e-06
3.57821e-06
7.82998e-07
1.85575e-05
1.85633e-05
2.23381e-06
7.81447e-07
3.57739e-06
1.07212e-06
2.23335e-06
7.83431e-07
3.57786e-06
5.54488e-06
5.5473e-06
1.31697e-06
5.54529e-06
5.54779e-06
4.17877e-06
9.28387e-06
4.17835e-06
9.2856e-06
1.85643e-05
1.8569e-05
4.17929e-06
9.28658e-06
4.17875e-06
9.28863e-06
4.94078e-07
4.94542e-07
4.93955e-07
4.95474e-07
4.95915e-07
4.96469e-07
4.95924e-07
2.23693e-06
3.58019e-06
7.8494e-07
1.07429e-06
2.23608e-06
3.5803e-06
7.86604e-07
1.85664e-05
1.85713e-05
2.23719e-06
7.85432e-07
3.5802e-06
1.07489e-06
2.236e-06
7.87113e-07
3.58088e-06
5.54762e-06
5.55021e-06
1.31921e-06
5.54813e-06
5.55066e-06
4.18103e-06
9.28834e-06
4.1808e-06
9.29029e-06
1.85702e-05
1.85736e-05
4.18189e-06
9.29027e-06
4.18131e-06
9.29242e-06
4.96671e-07
4.9716e-07
4.96696e-07
4.97666e-07
4.97823e-07
4.9839e-07
4.9807e-07
2.23898e-06
3.58257e-06
7.87959e-07
1.07621e-06
2.23848e-06
3.58301e-06
7.89289e-07
1.85726e-05
1.85764e-05
2.23997e-06
7.88462e-07
3.58341e-06
1.07704e-06
2.23884e-06
7.89819e-07
3.58393e-06
5.55104e-06
5.55315e-06
1.32128e-06
5.5517e-06
5.55359e-06
4.18256e-06
9.29293e-06
4.18247e-06
9.29408e-06
1.85732e-05
1.85761e-05
4.18296e-06
9.29456e-06
4.18324e-06
9.29667e-06
4.98385e-07
4.98946e-07
4.98679e-07
4.99212e-07
4.99167e-07
4.99633e-07
4.99558e-07
2.24083e-06
3.58467e-06
7.90154e-07
1.07758e-06
2.2405e-06
3.58466e-06
7.91129e-07
1.85765e-05
1.85798e-05
2.24173e-06
7.90707e-07
3.58557e-06
1.07835e-06
2.2412e-06
7.91609e-07
3.58547e-06
5.55385e-06
5.55577e-06
1.32278e-06
5.5539e-06
5.55568e-06
4.18366e-06
9.29457e-06
4.18375e-06
9.29515e-06
1.85748e-05
1.85774e-05
4.18342e-06
9.29742e-06
4.18341e-06
9.29788e-06
4.99369e-07
5.00118e-07
4.99975e-07
5.00067e-07
4.99712e-07
5.00363e-07
5.00369e-07
2.24159e-06
3.58572e-06
7.91554e-07
1.07811e-06
2.24136e-06
3.58524e-06
7.92007e-07
1.85787e-05
1.85814e-05
2.2424e-06
7.92016e-07
3.58627e-06
1.07884e-06
2.2418e-06
7.92515e-07
3.58582e-06
5.55509e-06
5.55673e-06
1.32306e-06
5.55449e-06
5.55619e-06
4.18425e-06
9.29526e-06
4.18458e-06
9.29566e-06
1.85761e-05
1.85788e-05
4.18535e-06
9.29777e-06
4.185e-06
9.29793e-06
5.0011e-07
5.00461e-07
5.00777e-07
5.00607e-07
5.00167e-07
5.00643e-07
5.0083e-07
2.24253e-06
3.58553e-06
7.92243e-07
1.07821e-06
2.24233e-06
3.58479e-06
7.92486e-07
1.85797e-05
1.85822e-05
2.24302e-06
7.92622e-07
3.58655e-06
1.07898e-06
2.24272e-06
7.92994e-07
3.586e-06
5.55493e-06
5.55675e-06
1.32335e-06
5.55414e-06
5.55596e-06
4.18468e-06
9.29545e-06
4.18485e-06
9.29586e-06
1.85777e-05
1.85805e-05
4.18602e-06
9.29748e-06
4.1864e-06
9.29778e-06
5.00269e-07
5.00758e-07
5.01208e-07
5.00806e-07
5.00378e-07
5.00828e-07
5.01255e-07
2.24332e-06
3.58538e-06
7.92577e-07
1.07812e-06
2.24337e-06
3.58471e-06
7.92712e-07
1.85802e-05
1.85822e-05
2.24202e-06
7.92908e-07
3.58615e-06
1.07897e-06
2.24282e-06
7.93165e-07
3.58545e-06
5.55485e-06
5.55636e-06
1.32315e-06
5.55417e-06
5.55575e-06
4.18505e-06
9.29586e-06
4.18554e-06
9.29626e-06
1.85792e-05
1.8582e-05
4.18588e-06
9.29808e-06
4.18631e-06
9.29874e-06
5.00468e-07
5.01e-07
5.01344e-07
5.00929e-07
5.0056e-07
5.01055e-07
5.01522e-07
2.24271e-06
3.58511e-06
7.92613e-07
1.07799e-06
2.24279e-06
3.58443e-06
7.9267e-07
1.85801e-05
1.85828e-05
2.24292e-06
7.93057e-07
3.58576e-06
1.07881e-06
2.24292e-06
7.93179e-07
3.5847e-06
5.55476e-06
5.55622e-06
1.32299e-06
5.55422e-06
5.55554e-06
4.18476e-06
9.29637e-06
4.18531e-06
9.29697e-06
1.8581e-05
1.85838e-05
4.18601e-06
9.29915e-06
4.1863e-06
9.29971e-06
5.00642e-07
5.01176e-07
5.01582e-07
5.01146e-07
5.00607e-07
5.01186e-07
5.01734e-07
2.24213e-06
3.58479e-06
7.92499e-07
1.07783e-06
2.24186e-06
3.5839e-06
7.92558e-07
1.85816e-05
1.85842e-05
2.24193e-06
7.93055e-07
3.58467e-06
1.0787e-06
2.24218e-06
7.93113e-07
3.584e-06
5.55511e-06
5.55631e-06
1.32307e-06
5.55453e-06
5.55591e-06
4.18449e-06
9.29712e-06
4.18502e-06
9.29759e-06
1.85828e-05
1.85855e-05
4.18612e-06
9.29998e-06
4.18649e-06
9.30056e-06
5.00925e-07
5.01262e-07
5.01867e-07
5.01264e-07
5.00948e-07
5.01352e-07
5.01917e-07
2.24152e-06
3.58411e-06
7.92433e-07
1.0777e-06
2.2419e-06
3.58348e-06
7.92482e-07
1.85829e-05
1.85859e-05
2.24103e-06
7.93025e-07
3.58467e-06
1.07864e-06
2.24183e-06
7.93117e-07
3.58413e-06
5.5554e-06
5.55688e-06
1.32293e-06
5.55483e-06
5.55644e-06
4.18433e-06
9.29744e-06
4.18482e-06
9.29771e-06
1.85839e-05
1.85857e-05
4.18573e-06
9.3005e-06
4.18632e-06
9.30081e-06
5.0109e-07
5.01462e-07
5.02017e-07
5.01395e-07
5.01188e-07
5.01534e-07
5.02001e-07
2.24101e-06
3.58407e-06
7.92362e-07
1.07773e-06
2.24104e-06
3.58349e-06
7.92415e-07
1.85848e-05
1.85877e-05
2.24237e-06
7.93026e-07
3.58478e-06
1.07857e-06
2.24214e-06
7.93137e-07
3.58441e-06
5.55557e-06
5.55723e-06
1.32318e-06
5.55514e-06
5.55671e-06
4.18453e-06
9.29737e-06
4.18493e-06
9.29757e-06
1.85829e-05
1.85848e-05
4.18561e-06
9.30032e-06
4.18612e-06
9.30056e-06
5.01256e-07
5.0166e-07
5.0211e-07
5.01452e-07
5.01322e-07
5.0167e-07
5.02076e-07
2.24064e-06
3.58401e-06
7.92348e-07
1.07778e-06
2.24041e-06
3.58347e-06
7.92427e-07
1.85864e-05
1.85891e-05
2.24223e-06
7.93111e-07
3.58531e-06
1.07867e-06
2.24244e-06
7.93175e-07
3.5848e-06
5.55597e-06
5.55749e-06
1.3229e-06
5.55529e-06
5.55683e-06
4.18416e-06
9.29721e-06
4.18475e-06
9.29743e-06
1.85828e-05
1.85851e-05
4.18502e-06
9.30054e-06
4.18563e-06
9.30099e-06
5.01351e-07
5.01775e-07
5.02189e-07
5.01487e-07
5.01452e-07
5.01673e-07
5.02129e-07
2.23928e-06
3.58416e-06
7.92398e-07
1.07776e-06
2.24013e-06
3.58366e-06
7.92377e-07
1.85867e-05
1.85887e-05
2.24152e-06
7.93107e-07
3.58547e-06
1.07864e-06
2.24194e-06
7.93149e-07
3.58507e-06
5.55567e-06
5.55755e-06
1.32275e-06
5.55496e-06
5.55705e-06
4.18374e-06
9.2972e-06
4.18438e-06
9.29748e-06
1.85834e-05
1.85857e-05
4.18455e-06
9.30122e-06
4.18499e-06
9.30182e-06
5.01541e-07
5.018e-07
5.02283e-07
5.01537e-07
5.0161e-07
5.01687e-07
5.02153e-07
2.24042e-06
3.58433e-06
7.92415e-07
1.07778e-06
2.24e-06
3.58384e-06
7.92371e-07
1.85863e-05
1.85885e-05
2.24208e-06
7.93048e-07
3.58582e-06
1.07854e-06
2.24179e-06
7.93119e-07
3.58517e-06
5.55568e-06
5.55775e-06
1.32249e-06
5.55484e-06
5.55716e-06
4.18301e-06
9.29746e-06
4.18376e-06
9.29791e-06
1.85836e-05
1.85858e-05
4.18535e-06
9.30186e-06
4.18518e-06
9.30214e-06