/*--------------------------------*- C++ -*----------------------------------*\
| =========                 |                                                 |
| \\      /  F ield         | OpenFOAM: The Open Source CFD Toolbox           |
|  \\    /   O peration     | Version:  v2012                                 |
|   \\  /    A nd           | Website:  www.openfoam.com                      |
|    \\/     M anipulation  |                                                 |
\*---------------------------------------------------------------------------*/
FoamFile
{
    version     2.0;
    format      ascii;
    class       volScalarField;
    location    "250";
    object      k;
}
// * * * * * * * * * * * * * * * * * * * * * * * * * * * * * * * * * * * * * //

dimensions      [0 2 -2 0 0 0 0];


internalField   nonuniform List<scalar> 
85864
(
2.0987e-05
3.66664e-05
4.19125e-05
3.66502e-05
3.665e-05
3.66563e-05
4.19229e-05
7.1311e-05
7.13196e-05
6.47787e-05
2.09857e-05
6.94647e-05
6.02489e-05
6.94656e-05
6.94701e-05
6.69523e-05
6.69639e-05
6.02383e-05
6.02454e-05
2.89766e-05
5.331e-05
7.13125e-05
6.47759e-05
2.89782e-05
6.02429e-05
5.33073e-05
6.69583e-05
6.69583e-05
6.9465e-05
7.13144e-05
7.13239e-05
7.74423e-05
7.01244e-05
7.01413e-05
7.13299e-05
7.74646e-05
7.74845e-05
7.01296e-05
7.0074e-05
6.48217e-05
6.82792e-05
6.9765e-05
6.83189e-05
6.97715e-05
7.00671e-05
6.94745e-05
6.94752e-05
6.94798e-05
7.01885e-05
5.9415e-05
6.69742e-05
7.11038e-05
7.11194e-05
5.94724e-05
7.01642e-05
7.02425e-05
5.94276e-05
6.69865e-05
7.11151e-05
7.11313e-05
5.94845e-05
7.02163e-05
9.24332e-05
7.19808e-05
7.19752e-05
7.19926e-05
7.19872e-05
9.24203e-05
7.01356e-05
7.13227e-05
7.74406e-05
7.74617e-05
7.01234e-05
7.00706e-05
6.48189e-05
6.9764e-05
6.82718e-05
6.97704e-05
6.83099e-05
7.00636e-05
7.02425e-05
5.94299e-05
6.69732e-05
7.1113e-05
7.11253e-05
5.94819e-05
7.02191e-05
7.01955e-05
5.94281e-05
6.69796e-05
7.11036e-05
5.94843e-05
7.11198e-05
7.01731e-05
9.24355e-05
7.19727e-05
7.19788e-05
7.19846e-05
7.19907e-05
9.24238e-05
6.94747e-05
7.13246e-05
1.49915e-05
5.97209e-05
5.06284e-05
5.06369e-05
4.19158e-05
5.06722e-05
5.06709e-05
5.96865e-05
5.97278e-05
5.06452e-05
5.06425e-05
4.19252e-05
5.06838e-05
5.06733e-05
5.96936e-05
1.49885e-05
4.82104e-05
5.26351e-05
6.02984e-05
5.85806e-05
5.26734e-05
5.86408e-05
4.81716e-05
4.81939e-05
5.26166e-05
6.02875e-05
5.85682e-05
5.86284e-05
5.26538e-05
4.81541e-05
4.82005e-05
5.26282e-05
6.02948e-05
5.85768e-05
5.86374e-05
5.26666e-05
4.81623e-05
4.57951e-05
5.33875e-05
5.56421e-05
4.38219e-05
5.57157e-05
4.38395e-05
4.58028e-05
4.81827e-05
5.26287e-05
6.02872e-05
5.85695e-05
5.86287e-05
5.26599e-05
4.8165e-05
4.58063e-05
5.33867e-05
4.381e-05
5.56377e-05
4.38547e-05
5.57104e-05
4.5803e-05
3.66603e-05
4.19145e-05
2.17207e-05
3.75599e-05
3.75665e-05
4.26191e-05
2.24612e-05
3.84263e-05
3.84328e-05
4.32911e-05
2.31998e-05
3.92518e-05
3.92572e-05
4.39218e-05
2.3926e-05
4.00272e-05
4.00327e-05
4.44956e-05
2.4629e-05
4.07445e-05
4.07515e-05
4.50246e-05
2.52992e-05
4.13985e-05
4.14075e-05
4.5507e-05
2.59288e-05
4.19881e-05
4.20001e-05
4.59344e-05
2.65115e-05
4.25168e-05
4.25319e-05
4.63842e-05
2.70424e-05
4.29823e-05
4.2998e-05
4.67575e-05
2.7522e-05
4.339e-05
4.34035e-05
4.70877e-05
2.79498e-05
4.37405e-05
4.37519e-05
4.73714e-05
2.83237e-05
4.40372e-05
4.40442e-05
4.75884e-05
2.86429e-05
4.42879e-05
4.42934e-05
4.77666e-05
2.89093e-05
4.44979e-05
4.45067e-05
4.79212e-05
2.91249e-05
4.4667e-05
4.46813e-05
4.80592e-05
2.92883e-05
4.47931e-05
4.48156e-05
4.81776e-05
2.94026e-05
4.48808e-05
4.49113e-05
4.82678e-05
2.94784e-05
4.49422e-05
4.49726e-05
4.83482e-05
2.95262e-05
4.49763e-05
4.50038e-05
4.83964e-05
2.95558e-05
4.49881e-05
4.50165e-05
4.84163e-05
2.95718e-05
4.49917e-05
4.50193e-05
4.84162e-05
2.95819e-05
4.49949e-05
4.50188e-05
4.84154e-05
2.95946e-05
4.49982e-05
4.50199e-05
4.84234e-05
2.96055e-05
4.49996e-05
4.50236e-05
4.8432e-05
2.96112e-05
4.50062e-05
4.5029e-05
4.84417e-05
2.9614e-05
4.50154e-05
4.50348e-05
4.84049e-05
2.96166e-05
4.50203e-05
4.5033e-05
4.84237e-05
2.96206e-05
4.50219e-05
4.50267e-05
4.83716e-05
2.96276e-05
4.50267e-05
4.50216e-05
4.83516e-05
2.96337e-05
4.50318e-05
4.50207e-05
4.83847e-05
2.96375e-05
4.50311e-05
4.50203e-05
4.84077e-05
2.96416e-05
4.50307e-05
4.50214e-05
4.83795e-05
2.96435e-05
4.50325e-05
4.50221e-05
4.84056e-05
2.96451e-05
4.5036e-05
4.50246e-05
4.84295e-05
2.96496e-05
4.50368e-05
4.50271e-05
4.84495e-05
2.96494e-05
4.50392e-05
4.50299e-05
4.84509e-05
2.96492e-05
4.50428e-05
4.50326e-05
4.83902e-05
2.96488e-05
4.5044e-05
4.5037e-05
4.84203e-05
2.96477e-05
4.50455e-05
4.50414e-05
4.84432e-05
2.9646e-05
4.50481e-05
4.50462e-05
4.84607e-05
2.96438e-05
4.50509e-05
4.50504e-05
4.84727e-05
2.9642e-05
4.50525e-05
4.50528e-05
4.84844e-05
2.96415e-05
4.50566e-05
4.50548e-05
4.84929e-05
2.96419e-05
4.50612e-05
4.50565e-05
4.84259e-05
2.9642e-05
4.50665e-05
4.50579e-05
4.84204e-05
2.96328e-05
4.50468e-05
4.50352e-05
4.83731e-05
2.90053e-05
4.36357e-05
4.36229e-05
4.7757e-05
4.2467e-05
3.6653e-05
3.73212e-05
3.73257e-05
4.19034e-05
4.2459e-05
3.73211e-05
3.73296e-05
3.66553e-05
3.73225e-05
3.73264e-05
4.24658e-05
3.66555e-05
3.73295e-05
3.73277e-05
4.24509e-05
4.26077e-05
4.31377e-05
3.75471e-05
3.75502e-05
3.81941e-05
3.81985e-05
4.26187e-05
4.31513e-05
3.75473e-05
3.75537e-05
3.8194e-05
3.82018e-05
3.75502e-05
3.81976e-05
3.81969e-05
4.26252e-05
4.31567e-05
3.75516e-05
3.82042e-05
3.81988e-05
4.31333e-05
4.32997e-05
4.37813e-05
3.8411e-05
3.84136e-05
3.90294e-05
3.90322e-05
4.3295e-05
4.37931e-05
3.84112e-05
3.8417e-05
3.9029e-05
3.90351e-05
3.84118e-05
3.90343e-05
3.90296e-05
4.33116e-05
4.37808e-05
3.84136e-05
3.904e-05
3.90308e-05
4.3781e-05
4.39256e-05
4.43714e-05
3.92351e-05
3.92355e-05
3.98177e-05
3.98171e-05
4.39247e-05
4.43799e-05
3.92349e-05
3.92387e-05
3.98169e-05
3.98219e-05
3.92335e-05
3.98231e-05
3.9816e-05
4.39252e-05
4.4385e-05
3.92343e-05
3.98288e-05
3.98157e-05
4.43488e-05
4.44966e-05
4.49062e-05
4.00094e-05
4.00069e-05
4.05499e-05
4.05459e-05
4.45029e-05
4.4915e-05
4.00087e-05
4.0012e-05
4.05484e-05
4.05535e-05
4.00056e-05
4.05563e-05
4.05458e-05
4.45106e-05
4.49326e-05
4.0005e-05
4.05629e-05
4.05441e-05
4.49028e-05
4.50233e-05
4.54099e-05
4.0726e-05
4.07198e-05
4.12206e-05
4.12117e-05
4.50386e-05
4.54071e-05
4.07246e-05
4.07281e-05
4.12186e-05
4.1224e-05
4.07198e-05
4.12277e-05
4.12123e-05
4.50384e-05
4.54114e-05
4.07179e-05
4.12359e-05
4.12104e-05
4.53802e-05
4.55188e-05
4.58552e-05
4.138e-05
4.1369e-05
4.18264e-05
4.18142e-05
4.55218e-05
4.58555e-05
4.13782e-05
4.13823e-05
4.18256e-05
4.18314e-05
4.13685e-05
4.18344e-05
4.18127e-05
4.55366e-05
4.58756e-05
4.1367e-05
4.18457e-05
4.18118e-05
4.58304e-05
4.59598e-05
4.63029e-05
4.19688e-05
4.19551e-05
4.23691e-05
4.23568e-05
4.59572e-05
4.63036e-05
4.1969e-05
4.19732e-05
4.23708e-05
4.23787e-05
4.19525e-05
4.23802e-05
4.23519e-05
4.59676e-05
4.63139e-05
4.19522e-05
4.23944e-05
4.23536e-05
4.62758e-05
4.64087e-05
4.66835e-05
4.24944e-05
4.24813e-05
4.28465e-05
4.2836e-05
4.64106e-05
4.66918e-05
4.24969e-05
4.25039e-05
4.28498e-05
4.28601e-05
4.24757e-05
4.28628e-05
4.28296e-05
4.64213e-05
4.67005e-05
4.24778e-05
4.28786e-05
4.28339e-05
4.66666e-05
4.67722e-05
4.70128e-05
4.29553e-05
4.29441e-05
4.32658e-05
4.32569e-05
4.67823e-05
4.70223e-05
4.29589e-05
4.29675e-05
4.32695e-05
4.32769e-05
4.29373e-05
4.32868e-05
4.3251e-05
4.67887e-05
4.70215e-05
4.29422e-05
4.32999e-05
4.32573e-05
4.70014e-05
4.70957e-05
4.73055e-05
4.33602e-05
4.33502e-05
4.36318e-05
4.3623e-05
4.71043e-05
4.7303e-05
4.33642e-05
4.33691e-05
4.36355e-05
4.36386e-05
4.33455e-05
4.36523e-05
4.36206e-05
4.71019e-05
4.73056e-05
4.33516e-05
4.36645e-05
4.36272e-05
4.72996e-05
4.73779e-05
4.75467e-05
4.37117e-05
4.37017e-05
4.39441e-05
4.3933e-05
4.73746e-05
4.75368e-05
4.37162e-05
4.37166e-05
4.39503e-05
4.39467e-05
4.36991e-05
4.39631e-05
4.39274e-05
4.7379e-05
4.75415e-05
4.37064e-05
4.39714e-05
4.39379e-05
4.75261e-05
4.76111e-05
4.77421e-05
4.40107e-05
4.39983e-05
4.42052e-05
4.41957e-05
4.76019e-05
4.77361e-05
4.40177e-05
4.40115e-05
4.42126e-05
4.42088e-05
4.39904e-05
4.42264e-05
4.41816e-05
4.76047e-05
4.77375e-05
4.40017e-05
4.42315e-05
4.4193e-05
4.7711e-05
4.77981e-05
4.79006e-05
4.42593e-05
4.42504e-05
4.44218e-05
4.44183e-05
4.77938e-05
4.79028e-05
4.42664e-05
4.42633e-05
4.44253e-05
4.44315e-05
4.42344e-05
4.44472e-05
4.43986e-05
4.77953e-05
4.79097e-05
4.42454e-05
4.44548e-05
4.44103e-05
4.787e-05
4.79506e-05
4.80377e-05
4.44666e-05
4.44633e-05
4.46021e-05
4.46005e-05
4.79553e-05
4.80483e-05
4.44695e-05
4.44762e-05
4.46012e-05
4.46141e-05
4.44425e-05
4.46276e-05
4.45795e-05
4.79626e-05
4.80555e-05
4.44544e-05
4.46404e-05
4.45905e-05
4.8011e-05
4.80849e-05
4.81477e-05
4.4637e-05
4.46339e-05
4.47407e-05
4.47344e-05
4.80961e-05
4.81674e-05
4.46363e-05
4.46486e-05
4.47394e-05
4.47539e-05
4.46138e-05
4.47656e-05
4.47203e-05
4.81046e-05
4.81844e-05
4.46246e-05
4.47861e-05
4.47319e-05
4.81335e-05
4.81976e-05
4.82276e-05
4.47653e-05
4.47583e-05
4.48371e-05
4.48353e-05
4.82095e-05
4.82592e-05
4.47653e-05
4.47785e-05
4.48383e-05
4.48548e-05
4.47452e-05
4.48619e-05
4.48254e-05
4.82296e-05
4.829e-05
4.47568e-05
4.48907e-05
4.48348e-05
4.82285e-05
4.82621e-05
4.82893e-05
4.48547e-05
4.48547e-05
4.49092e-05
4.49089e-05
4.82988e-05
4.83269e-05
4.48554e-05
4.48733e-05
4.49072e-05
4.49244e-05
4.48456e-05
4.49308e-05
4.49135e-05
4.83307e-05
4.83576e-05
4.48533e-05
4.49618e-05
4.49129e-05
4.83111e-05
4.83251e-05
4.83478e-05
4.49221e-05
4.49196e-05
4.49576e-05
4.49482e-05
4.83596e-05
4.83612e-05
4.49201e-05
4.49353e-05
4.49566e-05
4.49652e-05
4.49299e-05
4.49717e-05
4.49737e-05
4.83918e-05
4.83883e-05
4.49264e-05
4.5e-05
4.49648e-05
4.83694e-05
4.83788e-05
4.83775e-05
4.49649e-05
4.49548e-05
4.49828e-05
4.497e-05
4.83896e-05
4.83772e-05
4.49652e-05
4.49726e-05
4.49823e-05
4.49871e-05
4.49828e-05
4.49872e-05
4.50024e-05
4.8413e-05
4.83961e-05
4.49729e-05
4.50153e-05
4.49938e-05
4.83896e-05
4.84019e-05
4.83841e-05
4.49879e-05
4.49739e-05
4.4993e-05
4.49789e-05
4.84002e-05
4.83547e-05
4.4986e-05
4.49899e-05
4.49903e-05
4.49946e-05
4.50073e-05
4.49915e-05
4.50091e-05
4.84188e-05
4.83971e-05
4.49995e-05
4.50197e-05
4.50061e-05
4.83865e-05
4.84056e-05
4.8385e-05
4.49934e-05
4.49806e-05
4.49915e-05
4.49801e-05
4.83617e-05
4.83408e-05
4.49915e-05
4.49967e-05
4.49957e-05
4.49988e-05
4.50099e-05
4.49944e-05
4.50113e-05
4.8419e-05
4.83948e-05
4.50075e-05
4.50187e-05
4.50113e-05
4.83915e-05
4.83845e-05
4.83668e-05
4.49912e-05
4.49802e-05
4.49925e-05
4.49817e-05
4.83671e-05
4.8355e-05
4.49981e-05
4.49995e-05
4.50083e-05
4.50003e-05
4.50123e-05
4.4998e-05
4.50204e-05
4.84162e-05
4.83872e-05
4.50135e-05
4.50194e-05
4.50189e-05
4.84003e-05
4.83949e-05
4.83874e-05
4.49941e-05
4.49832e-05
4.50032e-05
4.49866e-05
4.83788e-05
4.83655e-05
4.50124e-05
4.50015e-05
4.50205e-05
4.50024e-05
4.50243e-05
4.49988e-05
4.50343e-05
4.84173e-05
4.83883e-05
4.50208e-05
4.50224e-05
4.50284e-05
4.84082e-05
4.84094e-05
4.8386e-05
4.50055e-05
4.49877e-05
4.50093e-05
4.49976e-05
4.83885e-05
4.8375e-05
4.50242e-05
4.5003e-05
4.50248e-05
4.50091e-05
4.50369e-05
4.50046e-05
4.5042e-05
4.84186e-05
4.84029e-05
4.50323e-05
4.50281e-05
4.50394e-05
4.84188e-05
4.8408e-05
4.83824e-05
4.5011e-05
4.50015e-05
4.5012e-05
4.50048e-05
4.83988e-05
4.83828e-05
4.50252e-05
4.50145e-05
4.50244e-05
4.50208e-05
4.5043e-05
4.5014e-05
4.50414e-05
4.84248e-05
4.83628e-05
4.50414e-05
4.5033e-05
4.50436e-05
4.83786e-05
4.84125e-05
4.83869e-05
4.5012e-05
4.50057e-05
4.50122e-05
4.50073e-05
4.84054e-05
4.83875e-05
4.50248e-05
4.50242e-05
4.50248e-05
4.50232e-05
4.504e-05
4.50199e-05
4.50365e-05
4.83949e-05
4.83451e-05
4.50448e-05
4.50343e-05
4.50451e-05
4.83964e-05
4.84174e-05
4.83897e-05
4.50126e-05
4.5008e-05
4.50136e-05
4.50108e-05
4.84108e-05
4.83929e-05
4.50245e-05
4.50219e-05
4.50247e-05
4.50154e-05
4.50373e-05
4.50211e-05
4.5037e-05
4.83428e-05
4.83352e-05
4.50447e-05
4.50274e-05
4.504e-05
4.83581e-05
4.842e-05
4.83954e-05
4.50138e-05
4.50121e-05
4.50158e-05
4.50149e-05
4.84147e-05
4.83869e-05
4.50253e-05
4.50159e-05
4.50268e-05
4.50127e-05
4.5037e-05
4.50254e-05
4.5035e-05
4.83348e-05
4.83285e-05
4.504e-05
4.5023e-05
4.50355e-05
4.83198e-05
4.84267e-05
4.84022e-05
4.50169e-05
4.50172e-05
4.50206e-05
4.50182e-05
4.84086e-05
4.83538e-05
4.50282e-05
4.50126e-05
4.50313e-05
4.50126e-05
4.50353e-05
4.5031e-05
4.50344e-05
4.83553e-05
4.83447e-05
4.50353e-05
4.50202e-05
4.50349e-05
4.83562e-05
4.84325e-05
4.84001e-05
4.50231e-05
4.50179e-05
4.50279e-05
4.50171e-05
4.83526e-05
4.83435e-05
4.50341e-05
4.50132e-05
4.50351e-05
4.50134e-05
4.50343e-05
4.50309e-05
4.50331e-05
4.83726e-05
4.83341e-05
4.50353e-05
4.50199e-05
4.50369e-05
4.83803e-05
4.84292e-05
4.83939e-05
4.50313e-05
4.50177e-05
4.5033e-05
4.50189e-05
4.83712e-05
4.8369e-05
4.50355e-05
4.5014e-05
4.50354e-05
4.50141e-05
4.50336e-05
4.50301e-05
4.50322e-05
4.83339e-05
4.83048e-05
4.50383e-05
4.50209e-05
4.50407e-05
4.83507e-05
4.84234e-05
4.83933e-05
4.50335e-05
4.50201e-05
4.50341e-05
4.50215e-05
4.83689e-05
4.83527e-05
4.50364e-05
4.5015e-05
4.50377e-05
4.50163e-05
4.50325e-05
4.50311e-05
4.50331e-05
4.83181e-05
4.83275e-05
4.50434e-05
4.50211e-05
4.50441e-05
4.83773e-05
4.84232e-05
4.83969e-05
4.50351e-05
4.50228e-05
4.50361e-05
4.50239e-05
4.83797e-05
4.83215e-05
4.50392e-05
4.50179e-05
4.50403e-05
4.50214e-05
4.50346e-05
4.50348e-05
4.5037e-05
4.83584e-05
4.83629e-05
4.50452e-05
4.50229e-05
4.50473e-05
4.84016e-05
4.84265e-05
4.83466e-05
4.50372e-05
4.50245e-05
4.50353e-05
4.50251e-05
4.83253e-05
4.83337e-05
4.50418e-05
4.50256e-05
4.5041e-05
4.50297e-05
4.50397e-05
4.50354e-05
4.50427e-05
4.83919e-05
4.83847e-05
4.50502e-05
4.50259e-05
4.50541e-05
4.84176e-05
4.83735e-05
4.83689e-05
4.50358e-05
4.50268e-05
4.50355e-05
4.50286e-05
4.83655e-05
4.83701e-05
4.50419e-05
4.50321e-05
4.50412e-05
4.50335e-05
4.50462e-05
4.50373e-05
4.5051e-05
4.84093e-05
4.83869e-05
4.50568e-05
4.50281e-05
4.50584e-05
4.84213e-05
4.83972e-05
4.83918e-05
4.50369e-05
4.50302e-05
4.50373e-05
4.503e-05
4.8399e-05
4.83946e-05
4.50426e-05
4.50355e-05
4.50427e-05
4.50371e-05
4.50547e-05
4.50408e-05
4.5057e-05
4.84181e-05
4.83948e-05
4.50603e-05
4.50305e-05
4.50605e-05
4.83642e-05
4.84184e-05
4.84071e-05
4.50394e-05
4.50317e-05
4.50393e-05
4.50315e-05
4.84218e-05
4.83738e-05
4.50436e-05
4.50393e-05
4.50425e-05
4.50399e-05
4.50586e-05
4.50427e-05
4.5057e-05
4.84243e-05
4.83916e-05
4.50617e-05
4.50341e-05
4.50606e-05
4.83911e-05
4.84292e-05
4.83515e-05
4.50409e-05
4.5033e-05
4.5037e-05
4.50308e-05
4.83735e-05
4.83589e-05
4.50442e-05
4.50425e-05
4.5041e-05
4.50419e-05
4.50592e-05
4.50427e-05
4.50592e-05
4.84212e-05
4.83975e-05
4.50631e-05
4.50382e-05
4.50643e-05
4.84157e-05
4.83789e-05
4.83763e-05
4.50385e-05
4.50332e-05
4.5034e-05
4.50326e-05
4.83877e-05
4.83811e-05
4.50431e-05
4.5044e-05
4.504e-05
4.5041e-05
4.50622e-05
4.50449e-05
4.5063e-05
4.84204e-05
4.84026e-05
4.50675e-05
4.50427e-05
4.50682e-05
4.84341e-05
4.83756e-05
4.83264e-05
4.50359e-05
4.50362e-05
4.50293e-05
4.50361e-05
4.84083e-05
4.83642e-05
4.50422e-05
4.50437e-05
4.50372e-05
4.50408e-05
4.50667e-05
4.50474e-05
4.50665e-05
4.84261e-05
4.84062e-05
4.5072e-05
4.5046e-05
4.50716e-05
4.84483e-05
4.83526e-05
4.83533e-05
4.50317e-05
4.50405e-05
4.50261e-05
4.5039e-05
4.83902e-05
4.83877e-05
4.504e-05
4.50446e-05
4.50358e-05
4.50425e-05
4.5071e-05
4.50478e-05
4.50711e-05
4.84372e-05
4.84071e-05
4.5076e-05
4.50483e-05
4.5075e-05
4.84526e-05
4.83829e-05
4.83438e-05
4.50305e-05
4.50442e-05
4.50271e-05
4.5043e-05
4.84158e-05
4.84059e-05
4.50401e-05
4.50469e-05
4.5035e-05
4.50422e-05
4.50768e-05
4.50502e-05
4.50765e-05
4.84036e-05
4.83863e-05
4.50802e-05
4.50489e-05
4.50794e-05
4.84682e-05
4.83758e-05
4.83097e-05
4.50334e-05
4.50497e-05
4.50303e-05
4.50461e-05
4.84364e-05
4.83817e-05
4.50403e-05
4.50477e-05
4.50345e-05
4.50419e-05
4.50832e-05
4.50535e-05
4.50795e-05
4.84162e-05
4.83442e-05
4.50863e-05
4.50499e-05
4.50841e-05
4.84356e-05
4.83411e-05
4.83253e-05
4.5038e-05
4.50538e-05
4.50331e-05
4.50489e-05
4.84094e-05
4.83711e-05
4.50416e-05
4.50486e-05
4.50348e-05
4.50415e-05
4.50866e-05
4.50568e-05
4.50793e-05
4.83716e-05
4.83174e-05
4.50916e-05
4.50494e-05
4.50856e-05
4.8388e-05
4.83626e-05
4.83191e-05
4.50427e-05
4.50586e-05
4.50336e-05
4.5049e-05
4.84105e-05
4.83353e-05
4.50439e-05
4.50501e-05
4.50338e-05
4.5038e-05
4.50882e-05
4.50573e-05
4.50774e-05
4.83488e-05
4.83151e-05
4.50948e-05
4.50465e-05
4.50842e-05
4.83617e-05
4.83308e-05
4.79879e-05
4.50233e-05
4.50386e-05
4.48279e-05
4.4843e-05
4.83486e-05
4.80273e-05
4.50226e-05
4.50266e-05
4.48278e-05
4.48289e-05
4.50663e-05
4.48574e-05
4.48707e-05
4.83265e-05
4.7991e-05
4.5073e-05
4.48444e-05
4.48785e-05
4.80489e-05
4.77256e-05
4.36135e-05
4.36282e-05
4.77494e-05
4.36133e-05
4.3614e-05
2.90289e-05
2.90263e-05
2.90522e-05
4.3654e-05
4.77167e-05
4.36614e-05
6.48808e-05
7.134e-05
6.47774e-05
6.94652e-05
6.94825e-05
6.48821e-05
7.13469e-05
2.09816e-05
2.09831e-05
2.15183e-05
2.15238e-05
2.15289e-05
2.15286e-05
5.35178e-05
6.02499e-05
2.89891e-05
3.6873e-05
6.03701e-05
2.92077e-05
5.33183e-05
6.94826e-05
5.35185e-05
2.89939e-05
3.68795e-05
2.92127e-05
6.03734e-05
5.33203e-05
6.69495e-05
6.69671e-05
4.20954e-05
6.70125e-05
6.70325e-05
6.51195e-05
7.13778e-05
6.50199e-05
7.14037e-05
6.94955e-05
6.95114e-05
6.51222e-05
7.13853e-05
6.50237e-05
7.14108e-05
2.17145e-05
2.17197e-05
2.1715e-05
2.22579e-05
2.22631e-05
2.22691e-05
2.22664e-05
5.39865e-05
6.05506e-05
2.99391e-05
3.77644e-05
5.37939e-05
6.06655e-05
3.01543e-05
6.94965e-05
6.95133e-05
5.39854e-05
2.9944e-05
6.05478e-05
3.77712e-05
5.37961e-05
3.01594e-05
6.06672e-05
6.71318e-05
6.71501e-05
4.28052e-05
6.71926e-05
6.72116e-05
6.53423e-05
7.14379e-05
6.52499e-05
7.14631e-05
6.95219e-05
6.95362e-05
6.53508e-05
7.14471e-05
6.52559e-05
7.14711e-05
2.24538e-05
2.24598e-05
2.24527e-05
2.29982e-05
2.30024e-05
2.30091e-05
2.30037e-05
5.44259e-05
6.08349e-05
3.08731e-05
3.86211e-05
5.42474e-05
6.09412e-05
3.1083e-05
6.95252e-05
6.95407e-05
5.44246e-05
3.08777e-05
6.08323e-05
3.86276e-05
5.42474e-05
3.10876e-05
6.09434e-05
6.73046e-05
6.73198e-05
4.34539e-05
6.73606e-05
6.73748e-05
6.55441e-05
7.14939e-05
6.5462e-05
7.15166e-05
6.95445e-05
6.95576e-05
6.5555e-05
7.15035e-05
6.54734e-05
7.15241e-05
2.31903e-05
2.31969e-05
2.31872e-05
2.37293e-05
2.37312e-05
2.37388e-05
2.37306e-05
5.48283e-05
6.10948e-05
3.17812e-05
3.94355e-05
5.46667e-05
6.11902e-05
3.19837e-05
6.95502e-05
6.95644e-05
5.48287e-05
3.17849e-05
6.10952e-05
3.94407e-05
5.46657e-05
3.1987e-05
6.1195e-05
6.74607e-05
6.74707e-05
4.40866e-05
6.75092e-05
6.75191e-05
6.57241e-05
7.15445e-05
6.56523e-05
7.15615e-05
6.95648e-05
6.95776e-05
6.5739e-05
7.15501e-05
6.5665e-05
7.15701e-05
2.39133e-05
2.39209e-05
2.39084e-05
2.44401e-05
2.44381e-05
2.44474e-05
2.4436e-05
5.51936e-05
6.13253e-05
3.26531e-05
4.01971e-05
5.50472e-05
6.1409e-05
3.28455e-05
6.9572e-05
6.95853e-05
5.51963e-05
3.26558e-05
6.13309e-05
4.02029e-05
5.50471e-05
3.28482e-05
6.14177e-05
6.75938e-05
6.76036e-05
4.4642e-05
6.76354e-05
6.76462e-05
6.58797e-05
7.1587e-05
6.58213e-05
7.16018e-05
6.95851e-05
6.95985e-05
6.58945e-05
7.1592e-05
6.5835e-05
7.16101e-05
2.46114e-05
2.46212e-05
2.46053e-05
2.51207e-05
2.51129e-05
2.51252e-05
2.51095e-05
5.55176e-05
6.15263e-05
3.34783e-05
4.09003e-05
5.53902e-05
6.15979e-05
3.3659e-05
6.95922e-05
6.96053e-05
5.55253e-05
3.34813e-05
6.15368e-05
4.09077e-05
5.53933e-05
3.36623e-05
6.16102e-05
6.77079e-05
6.77182e-05
4.51523e-05
6.77439e-05
6.77551e-05
6.6012e-05
7.16242e-05
6.59589e-05
7.16379e-05
6.96074e-05
6.96217e-05
6.60247e-05
7.16325e-05
6.59741e-05
7.16467e-05
2.52749e-05
2.52882e-05
2.52679e-05
2.57627e-05
2.57477e-05
2.57642e-05
2.5743e-05
5.58e-05
6.16972e-05
3.42462e-05
4.15394e-05
5.56888e-05
6.17583e-05
3.44126e-05
6.96125e-05
6.9626e-05
5.58083e-05
3.42507e-05
6.17115e-05
4.15489e-05
5.56952e-05
3.44179e-05
6.17735e-05
6.78059e-05
6.78167e-05
4.56099e-05
6.7837e-05
6.78504e-05
6.61206e-05
7.16604e-05
6.60806e-05
7.16747e-05
6.96322e-05
6.96473e-05
6.61332e-05
7.16659e-05
6.60917e-05
7.16823e-05
2.58973e-05
2.59149e-05
2.5889e-05
2.63595e-05
2.63379e-05
2.63591e-05
2.63316e-05
5.60422e-05
6.18486e-05
3.49475e-05
4.21156e-05
5.59492e-05
6.19021e-05
3.50984e-05
6.96345e-05
6.9649e-05
5.60505e-05
3.49559e-05
6.18645e-05
4.21279e-05
5.59537e-05
3.51082e-05
6.1917e-05
6.78942e-05
6.79063e-05
4.60579e-05
6.79233e-05
6.79377e-05
6.62128e-05
7.16959e-05
6.61756e-05
7.17132e-05
6.96588e-05
6.96741e-05
6.62251e-05
7.17017e-05
6.61876e-05
7.17185e-05
2.64737e-05
2.64961e-05
2.6464e-05
2.69053e-05
2.68789e-05
2.69036e-05
2.68712e-05
5.62462e-05
6.19828e-05
3.55772e-05
4.26298e-05
5.61616e-05
6.20313e-05
3.57123e-05
6.96593e-05
6.96746e-05
5.62607e-05
3.55922e-05
6.19952e-05
4.26455e-05
5.6184e-05
3.57285e-05
6.20426e-05
6.79767e-05
6.79901e-05
4.64838e-05
6.80068e-05
6.80213e-05
6.62999e-05
7.17342e-05
6.62643e-05
7.17519e-05
6.96863e-05
6.97021e-05
6.63106e-05
7.17409e-05
6.62751e-05
7.17561e-05
2.70007e-05
2.70258e-05
2.69898e-05
2.73994e-05
2.73698e-05
2.73946e-05
2.73616e-05
5.64255e-05
6.21105e-05
3.61382e-05
4.30826e-05
5.63607e-05
6.21475e-05
3.62596e-05
6.96856e-05
6.97009e-05
5.64383e-05
3.61571e-05
6.21108e-05
4.3097e-05
5.63642e-05
3.62785e-05
6.21514e-05
6.80489e-05
6.80699e-05
4.6837e-05
6.80719e-05
6.80957e-05
6.63808e-05
7.17754e-05
6.63485e-05
7.17908e-05
6.97154e-05
6.97319e-05
6.63942e-05
7.17776e-05
6.63586e-05
7.17961e-05
2.74775e-05
2.7502e-05
2.74667e-05
2.78419e-05
2.78092e-05
2.78322e-05
2.78023e-05
5.65883e-05
6.22036e-05
3.66356e-05
4.34773e-05
5.6521e-05
6.22423e-05
3.67434e-05
6.97123e-05
6.97288e-05
5.66035e-05
3.66571e-05
6.22069e-05
4.34904e-05
5.6534e-05
3.67654e-05
6.22446e-05
6.81182e-05
6.81388e-05
4.71595e-05
6.81393e-05
6.81637e-05
6.64597e-05
7.18143e-05
6.64256e-05
7.18303e-05
6.97463e-05
6.97634e-05
6.64723e-05
7.18213e-05
6.64427e-05
7.1838e-05
2.79026e-05
2.7925e-05
2.78932e-05
2.82308e-05
2.8196e-05
2.82162e-05
2.81885e-05
5.6738e-05
6.22979e-05
3.70734e-05
4.38152e-05
5.66858e-05
6.23315e-05
3.71682e-05
6.97424e-05
6.97597e-05
5.6747e-05
3.70965e-05
6.22987e-05
4.38255e-05
5.67138e-05
3.71914e-05
6.23252e-05
6.81777e-05
6.82096e-05
4.74201e-05
6.81953e-05
6.82347e-05
6.6533e-05
7.18547e-05
6.65024e-05
7.18711e-05
6.97779e-05
6.97951e-05
6.6547e-05
7.18641e-05
6.65156e-05
7.18801e-05
2.82757e-05
2.82952e-05
2.82652e-05
2.85647e-05
2.85314e-05
2.85493e-05
2.85201e-05
5.68775e-05
6.23839e-05
3.74548e-05
4.41013e-05
5.68143e-05
6.24097e-05
3.7538e-05
6.97746e-05
6.97925e-05
5.68865e-05
3.7474e-05
6.23826e-05
4.41072e-05
5.68281e-05
3.75562e-05
6.2404e-05
6.82232e-05
6.82512e-05
4.76227e-05
6.82318e-05
6.82655e-05
6.66053e-05
7.18931e-05
6.65736e-05
7.19113e-05
6.98101e-05
6.98268e-05
6.66268e-05
7.19006e-05
6.65952e-05
7.19185e-05
2.8598e-05
2.86156e-05
2.8584e-05
2.88451e-05
2.88155e-05
2.88331e-05
2.88012e-05
5.70111e-05
6.24506e-05
3.77835e-05
4.43422e-05
5.69738e-05
6.24823e-05
3.78544e-05
6.98074e-05
6.98248e-05
5.70115e-05
3.77994e-05
6.24478e-05
4.43482e-05
5.69573e-05
3.78711e-05
6.24809e-05
6.8264e-05
6.82815e-05
4.77931e-05
6.8284e-05
6.83011e-05
6.66781e-05
7.19332e-05
6.66478e-05
7.19507e-05
6.98399e-05
6.98555e-05
6.66987e-05
7.19424e-05
6.66684e-05
7.19578e-05
2.88692e-05
2.8887e-05
2.8853e-05
2.90745e-05
2.9045e-05
2.90638e-05
2.90313e-05
5.7132e-05
6.25292e-05
3.80592e-05
4.45434e-05
5.71053e-05
6.25577e-05
3.81194e-05
6.98377e-05
6.98534e-05
5.71324e-05
3.80782e-05
6.25267e-05
4.45534e-05
5.70767e-05
3.8139e-05
6.25566e-05
6.83122e-05
6.8334e-05
4.79419e-05
6.83293e-05
6.8347e-05
6.67502e-05
7.19728e-05
6.67241e-05
7.19864e-05
6.9866e-05
6.98794e-05
6.67621e-05
7.19818e-05
6.67339e-05
7.19965e-05
2.90851e-05
2.91045e-05
2.90711e-05
2.92522e-05
2.92171e-05
2.9238e-05
2.92089e-05
5.72437e-05
6.26077e-05
3.82867e-05
4.47027e-05
5.72069e-05
6.26467e-05
3.83351e-05
6.98644e-05
6.98793e-05
5.72378e-05
3.83076e-05
6.25986e-05
4.47189e-05
5.71865e-05
3.83566e-05
6.2631e-05
6.83604e-05
6.83793e-05
4.80748e-05
6.83764e-05
6.83985e-05
6.68141e-05
7.20025e-05
6.67858e-05
7.2014e-05
6.98865e-05
6.98987e-05
6.68268e-05
7.20154e-05
6.68006e-05
7.20244e-05
2.92454e-05
2.92662e-05
2.92372e-05
2.93789e-05
2.93406e-05
2.93613e-05
2.93402e-05
5.73466e-05
6.2701e-05
3.84605e-05
4.48188e-05
5.73086e-05
6.27042e-05
3.84967e-05
6.98881e-05
6.99009e-05
5.7354e-05
3.84841e-05
6.26801e-05
4.48437e-05
5.73161e-05
3.85199e-05
6.27066e-05
6.84038e-05
6.84265e-05
4.81846e-05
6.84203e-05
6.84426e-05
6.68769e-05
7.20254e-05
6.6855e-05
7.20377e-05
6.99031e-05
6.99125e-05
6.68946e-05
7.20361e-05
6.68639e-05
7.2044e-05
2.93609e-05
2.93819e-05
2.93618e-05
2.9464e-05
2.94264e-05
2.9447e-05
2.94389e-05
5.74673e-05
6.2739e-05
3.85833e-05
4.48998e-05
5.74308e-05
6.27838e-05
3.8609e-05
6.99051e-05
6.99152e-05
5.74773e-05
3.86047e-05
6.27577e-05
4.49312e-05
5.7426e-05
3.86289e-05
6.27953e-05
6.84556e-05
6.84694e-05
4.82699e-05
6.84761e-05
6.84843e-05
6.6912e-05
7.205e-05
6.68993e-05
7.20605e-05
6.99121e-05
6.99197e-05
6.69398e-05
7.20573e-05
6.69312e-05
7.20661e-05
2.94409e-05
2.94601e-05
2.94551e-05
2.95192e-05
2.94817e-05
2.95006e-05
2.95075e-05
5.75584e-05
6.28064e-05
3.86629e-05
4.49554e-05
5.75177e-05
6.2836e-05
3.86793e-05
6.99158e-05
6.99246e-05
5.75707e-05
3.86801e-05
6.28352e-05
4.49847e-05
5.75502e-05
3.86957e-05
6.28539e-05
6.85085e-05
6.8516e-05
4.83445e-05
6.85156e-05
6.85319e-05
6.69476e-05
7.20646e-05
6.69402e-05
7.20677e-05
6.99169e-05
6.99233e-05
6.69313e-05
7.2074e-05
6.69326e-05
7.20771e-05
2.9491e-05
2.95102e-05
2.95185e-05
2.95518e-05
2.95139e-05
2.95339e-05
2.95515e-05
5.75778e-05
6.2848e-05
3.87066e-05
4.49834e-05
5.75689e-05
6.28583e-05
3.87174e-05
6.99224e-05
6.99291e-05
5.76091e-05
3.87248e-05
6.28583e-05
4.50107e-05
5.75992e-05
3.87355e-05
6.28592e-05
6.85345e-05
6.85391e-05
4.83797e-05
6.85354e-05
6.85444e-05
6.69648e-05
7.20688e-05
6.6961e-05
7.20711e-05
6.99203e-05
6.99268e-05
6.69783e-05
7.20771e-05
6.69581e-05
7.20783e-05
2.95189e-05
2.95391e-05
2.95594e-05
2.95694e-05
2.95311e-05
2.95508e-05
2.95806e-05
5.76332e-05
6.28499e-05
3.87307e-05
4.49899e-05
5.7603e-05
6.28434e-05
3.87361e-05
6.99256e-05
6.9932e-05
5.76448e-05
3.87478e-05
6.28796e-05
4.50189e-05
5.76331e-05
3.87545e-05
6.28833e-05
6.85333e-05
6.8547e-05
4.83918e-05
6.85286e-05
6.85392e-05
6.6968e-05
7.20697e-05
6.69622e-05
7.20717e-05
6.99238e-05
6.99308e-05
6.70131e-05
7.20759e-05
6.70076e-05
7.20771e-05
2.95358e-05
2.95552e-05
2.95846e-05
2.95806e-05
2.95473e-05
2.95644e-05
2.96005e-05
5.76791e-05
6.28412e-05
3.87416e-05
4.49929e-05
5.76614e-05
6.28554e-05
3.87438e-05
6.99269e-05
6.99321e-05
5.76337e-05
3.8758e-05
6.28693e-05
4.50196e-05
5.76342e-05
3.87607e-05
6.28695e-05
6.85301e-05
6.85333e-05
4.83853e-05
6.85313e-05
6.85357e-05
6.69919e-05
7.20718e-05
6.69908e-05
7.20738e-05
6.99276e-05
6.99341e-05
6.70133e-05
7.20778e-05
6.70129e-05
7.20813e-05
2.95509e-05
2.95666e-05
2.9606e-05
2.95934e-05
2.95633e-05
2.95776e-05
2.96165e-05
5.76684e-05
6.28472e-05
3.87477e-05
4.49965e-05
5.76714e-05
6.28468e-05
3.87499e-05
6.99265e-05
6.9933e-05
5.76614e-05
3.87652e-05
6.28617e-05
4.5019e-05
5.76436e-05
3.87677e-05
6.28235e-05
6.85279e-05
6.85329e-05
4.83966e-05
6.85277e-05
6.85307e-05
6.69859e-05
7.20738e-05
6.69864e-05
7.20768e-05
6.99316e-05
6.99386e-05
6.70135e-05
7.20833e-05
6.70106e-05
7.20864e-05
2.9568e-05
2.95822e-05
2.96189e-05
2.96046e-05
2.9577e-05
2.95913e-05
2.9629e-05
5.76304e-05
6.28325e-05
3.87533e-05
4.49984e-05
5.76428e-05
6.28162e-05
3.87558e-05
6.99297e-05
6.99363e-05
5.76503e-05
3.87706e-05
6.28278e-05
4.50208e-05
5.76503e-05
3.87725e-05
6.28312e-05
6.8534e-05
6.85318e-05
4.84042e-05
6.85339e-05
6.85355e-05
6.69847e-05
7.20777e-05
6.69833e-05
7.20802e-05
6.99361e-05
6.9943e-05
6.7018e-05
7.2088e-05
6.70154e-05
7.20911e-05
2.95787e-05
2.95951e-05
2.96336e-05
2.96101e-05
2.95901e-05
2.96035e-05
2.9641e-05
5.76338e-05
6.28215e-05
3.87585e-05
4.50007e-05
5.76343e-05
6.28209e-05
3.87591e-05
6.99325e-05
6.99398e-05
5.76323e-05
3.87743e-05
6.28378e-05
4.50254e-05
5.76398e-05
3.87754e-05
6.28407e-05
6.85367e-05
6.85393e-05
4.84137e-05
6.85429e-05
6.85463e-05
6.69779e-05
7.20799e-05
6.69807e-05
7.20817e-05
6.99395e-05
6.99444e-05
6.70035e-05
7.20915e-05
6.70099e-05
7.20932e-05
2.95954e-05
2.96061e-05
2.96443e-05
2.96138e-05
2.9603e-05
2.96147e-05
2.96494e-05
5.76112e-05
6.28273e-05
3.87603e-05
4.50099e-05
5.76107e-05
6.28225e-05
3.87622e-05
6.99375e-05
6.99446e-05
5.76341e-05
3.87787e-05
6.28328e-05
4.50313e-05
5.76254e-05
3.87817e-05
6.28394e-05
6.85413e-05
6.85463e-05
4.84118e-05
6.85453e-05
6.85493e-05
6.69852e-05
7.20802e-05
6.69764e-05
7.20814e-05
6.99375e-05
6.99422e-05
6.70064e-05
7.2091e-05
6.70062e-05
7.20918e-05
2.96056e-05
2.9618e-05
2.96517e-05
2.96162e-05
2.9614e-05
2.96231e-05
2.96567e-05
5.76099e-05
6.28185e-05
3.87647e-05
4.5018e-05
5.76005e-05
6.28229e-05
3.87677e-05
6.99416e-05
6.99484e-05
5.76674e-05
3.87846e-05
6.28451e-05
4.5035e-05
5.76612e-05
3.8786e-05
6.28564e-05
6.8549e-05
6.8553e-05
4.83886e-05
6.85488e-05
6.8554e-05
6.69803e-05
7.20794e-05
6.69813e-05
7.20805e-05
6.99367e-05
6.99425e-05
6.69941e-05
7.20914e-05
6.69962e-05
7.20935e-05
2.96155e-05
2.96254e-05
2.96576e-05
2.96202e-05
2.9623e-05
2.96267e-05
2.9662e-05
5.76088e-05
6.28206e-05
3.87703e-05
4.50201e-05
5.76119e-05
6.28326e-05
3.87712e-05
6.99432e-05
6.99482e-05
5.76408e-05
3.87861e-05
6.28556e-05
4.5032e-05
5.76564e-05
3.87859e-05
6.28581e-05
6.85432e-05
6.85505e-05
4.83676e-05
6.85363e-05
6.85562e-05
6.69675e-05
7.2079e-05
6.69674e-05
7.20805e-05
6.99383e-05
6.99442e-05
6.69767e-05
7.20943e-05
6.69766e-05
7.20973e-05
2.96256e-05
2.96293e-05
2.96624e-05
2.96261e-05
2.96323e-05
2.96313e-05
2.96659e-05
5.75812e-05
6.28326e-05
3.87751e-05
4.50233e-05
5.75903e-05
6.28343e-05
3.87784e-05
6.9942e-05
6.99474e-05
5.76046e-05
3.87821e-05
6.28689e-05
4.50272e-05
5.76016e-05
3.87817e-05
6.28685e-05
6.85452e-05
6.85585e-05
4.83484e-05
6.85366e-05
6.8558e-05
6.69444e-05
7.20802e-05
6.69494e-05
7.20823e-05
6.9939e-05
6.99442e-05
6.69751e-05
7.20983e-05
6.69643e-05
7.21001e-05