/*--------------------------------*- C++ -*----------------------------------*\
| =========                 |                                                 |
| \\      /  F ield         | OpenFOAM: The Open Source CFD Toolbox           |
|  \\    /   O peration     | Version:  v2012                                 |
|   \\  /    A nd           | Website:  www.openfoam.com                      |
|    \\/     M anipulation  |                                                 |
\*---------------------------------------------------------------------------*/
FoamFile
{
    version     2.0;
    format      ascii;
    class       volScalarField;
    location    "250";
    object      nut;
}
// * * * * * * * * * * * * * * * * * * * * * * * * * * * * * * * * * * * * * //

dimensions      [0 2 -1 0 0 0 0];


internalField   nonuniform List<scalar> 
85864
(
0.000122756
0.000139005
0.0001367
0.000138931
0.000138943
0.00013893
0.000136716
5.0006e-05
5.00069e-05
9.20297e-05
0.00012267
2.36014e-05
9.37606e-05
2.36044e-05
2.36034e-05
7.37815e-05
7.37788e-05
9.37574e-05
9.37468e-05
0.000134223
0.000120862
5.00026e-05
9.20278e-05
0.000134212
9.37566e-05
0.000120854
7.37709e-05
7.37878e-05
2.36033e-05
5.00057e-05
5.00137e-05
7.60709e-05
2.00957e-05
2.0099e-05
5.00083e-05
7.60991e-05
7.61415e-05
2.00972e-05
3.62596e-05
9.21526e-05
8.82262e-05
4.05224e-05
8.83282e-05
4.05247e-05
3.62575e-05
2.36031e-05
2.36061e-05
2.36051e-05
9.74328e-05
0.000112589
7.38215e-05
4.79333e-05
4.79412e-05
0.00011276
9.73815e-05
9.74512e-05
0.000112576
7.38292e-05
4.79221e-05
4.79315e-05
0.000112764
9.73852e-05
7.89276e-05
2.14864e-05
2.14833e-05
2.14883e-05
2.14852e-05
7.89022e-05
2.00969e-05
5.00035e-05
7.60673e-05
7.61136e-05
2.00951e-05
3.62567e-05
9.21481e-05
4.05222e-05
8.82099e-05
4.05243e-05
8.83113e-05
3.62547e-05
9.74477e-05
0.00011259
7.37997e-05
4.79257e-05
4.7926e-05
0.00011274
9.73907e-05
9.74484e-05
0.000112614
7.38317e-05
4.79326e-05
0.000112781
4.7942e-05
9.73853e-05
7.89298e-05
2.14826e-05
2.1486e-05
2.14845e-05
2.14878e-05
7.89063e-05
2.3605e-05
5.00067e-05
0.00012043
0.0001197
0.000129712
0.000129753
0.000136786
0.00012993
0.000129885
0.000119614
0.00011973
0.000129753
0.000129736
0.000136809
0.000129954
0.000129903
0.000119605
0.000120317
0.000128679
0.000122031
9.39155e-05
0.000107578
0.000122222
0.000107786
0.000128442
0.000128594
0.000122016
9.38911e-05
0.000107552
0.00010776
0.000122144
0.000128369
0.000128651
0.000122028
9.39045e-05
0.000107576
0.000107767
0.000122205
0.00012842
0.00013255
0.000121154
0.000117265
0.000134417
0.000117524
0.000134472
0.000132544
0.00012858
0.000122039
9.38738e-05
0.000107551
0.000107758
0.00012214
0.000128341
0.000132609
0.000121155
0.000134313
0.000117254
0.000134592
0.000117509
0.000132542
0.000138994
0.000136703
0.000125379
0.000141948
0.000141965
0.000138899
0.000128098
0.000144818
0.000144841
0.000141007
0.000130877
0.000147581
0.000147604
0.000142995
0.000133674
0.000150212
0.000150239
0.000144797
0.000136444
0.000152687
0.00015272
0.000146499
0.000139147
0.000154994
0.000155032
0.000148094
0.000141746
0.000157126
0.000157172
0.000149502
0.000144208
0.000159099
0.000159156
0.000151191
0.000146485
0.000160882
0.000160943
0.000152578
0.00014858
0.000162486
0.00016254
0.000153825
0.000150488
0.000163898
0.000163945
0.000154929
0.000152183
0.000165125
0.000165152
0.0001558
0.000153645
0.000166176
0.000166203
0.000156535
0.000154862
0.000167063
0.000167103
0.000157171
0.000155825
0.00016777
0.00016783
0.000157731
0.000156502
0.000168279
0.000168368
0.000158216
0.000156882
0.000168606
0.000168717
0.000158571
0.000157053
0.000168811
0.000168912
0.000158854
0.000157115
0.000168925
0.000169009
0.000159109
0.000157193
0.00016895
0.000169036
0.000159225
0.000157209
0.000168982
0.00016906
0.000159251
0.000157258
0.00016903
0.000169081
0.000159248
0.000157356
0.000169078
0.000169107
0.000159275
0.000157393
0.000169112
0.000169147
0.00015936
0.000157432
0.000169161
0.000169193
0.000159395
0.000157419
0.000169225
0.000169235
0.000159158
0.000157432
0.000169259
0.000169219
0.000159312
0.00015746
0.000169266
0.000169183
0.000158975
0.000157519
0.000169296
0.000169165
0.000158954
0.000157585
0.000169323
0.000169169
0.000159161
0.000157575
0.000169311
0.000169173
0.000159265
0.000157602
0.000169303
0.000169186
0.000159114
0.000157578
0.000169306
0.000169199
0.000159259
0.000157575
0.000169311
0.000169228
0.000159352
0.000157611
0.000169307
0.000169226
0.000159427
0.000157583
0.00016931
0.00016924
0.000159453
0.00015757
0.000169333
0.000169267
0.000159048
0.000157563
0.000169349
0.000169302
0.000159244
0.000157557
0.000169361
0.000169329
0.00015936
0.000157549
0.000169373
0.000169356
0.000159439
0.000157543
0.000169383
0.000169382
0.000159487
0.000157545
0.000169387
0.0001694
0.000159533
0.000157562
0.000169403
0.000169416
0.000159554
0.00015757
0.000169417
0.000169424
0.000159118
0.000157602
0.000169432
0.000169428
0.000159191
0.000157845
0.00016933
0.000169318
0.000159
0.000157417
0.000168696
0.000168682
0.000160318
0.000138587
0.000138924
0.000141087
0.000141089
0.000136614
0.000138519
0.000141101
0.000141105
0.000138939
0.000141085
0.000141102
0.000138532
0.000138948
0.000141103
0.000141114
0.000138473
0.00013882
0.000140649
0.000141875
0.000141864
0.000143961
0.00014396
0.000138871
0.000140727
0.000141889
0.000141879
0.000143976
0.000143978
0.000141875
0.000143963
0.000143968
0.000138897
0.000140738
0.000141886
0.000143986
0.000143979
0.000140621
0.000141053
0.000142686
0.000144731
0.000144715
0.000146736
0.000146725
0.000140999
0.00014275
0.000144746
0.000144734
0.000146751
0.000146747
0.000144722
0.000146742
0.000146733
0.000141088
0.000142657
0.000144733
0.000146766
0.00014674
0.000142693
0.000143005
0.000144555
0.00014748
0.000147451
0.000149384
0.000149355
0.000142979
0.000144605
0.000147495
0.000147475
0.000149397
0.000149391
0.000147462
0.000149393
0.000149372
0.000142978
0.000144619
0.000147468
0.000149422
0.000149375
0.000144409
0.000144782
0.000146255
0.00015009
0.00015005
0.000151876
0.000151837
0.000144808
0.000146303
0.000150104
0.000150085
0.000151889
0.000151883
0.000150063
0.000151899
0.000151853
0.000144844
0.0001464
0.000150066
0.000151933
0.000151855
0.00014624
0.000146459
0.00014794
0.000152542
0.000152489
0.000154207
0.000154149
0.000146546
0.000147908
0.000152555
0.000152535
0.000154218
0.000154208
0.000152504
0.000154244
0.000154165
0.000146524
0.000147908
0.000152506
0.000154281
0.000154167
0.000147757
0.000148119
0.000149436
0.000154828
0.000154755
0.000156367
0.000156295
0.000148132
0.000149401
0.000154838
0.000154816
0.00015638
0.000156365
0.000154764
0.000156418
0.000156295
0.000148198
0.00014953
0.000154769
0.000156463
0.000156304
0.000149286
0.000149611
0.000151061
0.00015694
0.000156856
0.000158368
0.000158295
0.000149589
0.000151034
0.000156957
0.000156927
0.00015839
0.000158374
0.00015685
0.00015844
0.000158274
0.00014962
0.000151127
0.000156861
0.000158493
0.000158295
0.000150916
0.000151312
0.000152475
0.000158889
0.000158806
0.000160184
0.000160116
0.00015131
0.000152491
0.000158913
0.000158888
0.000160211
0.000160199
0.000158781
0.000160282
0.000160083
0.000151342
0.000152548
0.000158802
0.000160343
0.000160113
0.000152381
0.00015266
0.000153711
0.000160645
0.000160571
0.000161826
0.000161765
0.000152732
0.000153764
0.000160674
0.000160649
0.000161857
0.000161827
0.000160532
0.000161951
0.000161724
0.000152714
0.000153733
0.000160565
0.000162002
0.000161763
0.000153635
0.000153889
0.000154847
0.000162235
0.000162165
0.000163309
0.000163244
0.000153984
0.000154867
0.000162268
0.000162223
0.00016334
0.000163291
0.000162128
0.000163437
0.000163216
0.000153892
0.000154821
0.000162164
0.000163488
0.000163254
0.000154798
0.000155025
0.00015583
0.000163659
0.000163585
0.000164613
0.000164531
0.000155045
0.000155793
0.000163693
0.000163629
0.000164651
0.000164574
0.000163557
0.000164735
0.000164499
0.000154982
0.000155768
0.000163596
0.000164772
0.000164552
0.000155695
0.000155984
0.000156626
0.000164901
0.000164809
0.000165732
0.000165642
0.000155946
0.000156589
0.000164941
0.00016485
0.000165771
0.000165684
0.000164767
0.000165855
0.000165584
0.000155907
0.000156569
0.000164823
0.000165878
0.000165648
0.000156459
0.000156731
0.000157266
0.000165957
0.000165866
0.000166666
0.00016659
0.000156683
0.000157246
0.000165997
0.000165908
0.000166693
0.000166637
0.000165802
0.000166801
0.000166523
0.00015668
0.000157265
0.000165862
0.000166835
0.000166587
0.000157119
0.000157332
0.000157812
0.000166841
0.00016676
0.000167441
0.000167364
0.000157304
0.000157874
0.000166865
0.000166805
0.000167446
0.000167407
0.000166692
0.000167571
0.000167306
0.000157339
0.000157829
0.000166759
0.000167623
0.000167365
0.000157691
0.000157852
0.000158254
0.000167552
0.000167469
0.000168006
0.000167908
0.000157849
0.000158301
0.000167559
0.000167514
0.000168006
0.000167969
0.000167416
0.000168149
0.000167892
0.000157894
0.000158348
0.000167475
0.000168228
0.000167956
0.00015819
0.000158255
0.000158563
0.000168058
0.000167949
0.000168346
0.000168266
0.000158315
0.000158644
0.000168068
0.000168017
0.000168366
0.000168329
0.000167949
0.000168523
0.0001683
0.000158354
0.000158739
0.000168005
0.000168627
0.000168349
0.000158569
0.000158452
0.00015874
0.000168368
0.000168301
0.000168605
0.000168553
0.000158681
0.000158918
0.000168387
0.000168357
0.0001686
0.000168597
0.000168335
0.000168768
0.000168627
0.000158755
0.000159008
0.00016837
0.000168874
0.000168642
0.000158913
0.000158762
0.000159006
0.000168623
0.000168558
0.000168785
0.000168728
0.000158927
0.000159068
0.000168612
0.000168604
0.000168795
0.000168762
0.000168664
0.000168909
0.000168883
0.000159026
0.000159145
0.000168672
0.000168993
0.000168862
0.000159136
0.000159021
0.000159207
0.000168805
0.000168722
0.000168893
0.000168828
0.000159064
0.000159225
0.000168784
0.000168754
0.000168892
0.00016886
0.000168882
0.000168945
0.000169024
0.00015911
0.000159192
0.000168868
0.000169031
0.000169011
0.000159291
0.000159058
0.000159245
0.000168916
0.000168836
0.000168973
0.000168896
0.000159046
0.000159036
0.000168903
0.000168856
0.000168952
0.00016892
0.00016904
0.000168969
0.00016909
0.000159145
0.000159252
0.000169033
0.000169053
0.0001691
0.000159296
0.000159072
0.000159258
0.00016897
0.000168897
0.000168981
0.000168927
0.000158895
0.000158993
0.000168945
0.000168922
0.000168979
0.000168971
0.000169076
0.000169013
0.000169124
0.000159108
0.000159259
0.000169097
0.000169067
0.00016915
0.000159371
0.000158955
0.000159109
0.000168969
0.000168908
0.000168994
0.000168953
0.000158975
0.000159102
0.000168994
0.000168967
0.000169069
0.000169005
0.000169111
0.000169063
0.00016917
0.0001591
0.00015924
0.000169153
0.000169096
0.000169207
0.000159401
0.0001591
0.000159228
0.000168984
0.000168943
0.000169057
0.00016898
0.000159068
0.000159191
0.00016906
0.000168991
0.000169125
0.000169027
0.000169186
0.000169099
0.000169261
0.000159121
0.000159212
0.000169191
0.000169134
0.000169245
0.000159403
0.000159181
0.00015923
0.000169062
0.000168984
0.000169102
0.000169049
0.000159088
0.000159279
0.000169127
0.000169023
0.000169155
0.000169072
0.000169268
0.000169152
0.00016932
0.00015922
0.000159308
0.00016927
0.000169183
0.000169314
0.000159513
0.000159183
0.000159216
0.000169101
0.000169067
0.000169128
0.000169108
0.000159126
0.000159313
0.000169143
0.000169087
0.000169165
0.000169137
0.000169316
0.000169215
0.000169332
0.000159254
0.000159114
0.000169317
0.000169227
0.000169346
0.00015926
0.000159223
0.00015925
0.000169121
0.000169105
0.000169143
0.000169139
0.000159156
0.000159342
0.000169154
0.000169141
0.000169179
0.000169164
0.000169306
0.000169259
0.000169318
0.000159035
0.000158973
0.000169341
0.000169227
0.000169361
0.000159354
0.000159257
0.000159259
0.000169122
0.000169127
0.000169154
0.000169162
0.00015919
0.00015937
0.000169165
0.000169135
0.000169184
0.000169127
0.000169312
0.00016926
0.000169331
0.000158767
0.000158973
0.000169346
0.000169183
0.000169333
0.000159124
0.000159265
0.000159285
0.000169138
0.000169157
0.000169166
0.000169188
0.000159208
0.000159341
0.000169176
0.00016912
0.000169201
0.000169122
0.000169316
0.000169288
0.000169322
0.000158782
0.000158951
0.000169325
0.000169166
0.000169317
0.000158935
0.000159295
0.00015931
0.000169158
0.00016919
0.00016919
0.000169211
0.000159175
0.000159125
0.000169191
0.000169111
0.000169227
0.000169133
0.000169306
0.000169321
0.000169326
0.000158935
0.000159056
0.000169304
0.000169164
0.000169322
0.000159175
0.000159315
0.000159292
0.000169186
0.000169188
0.000169228
0.000169199
0.000158817
0.000159101
0.000169219
0.000169113
0.000169245
0.000169135
0.000169314
0.000169312
0.000169327
0.000159045
0.000158995
0.000169295
0.000169172
0.000169321
0.000159369
0.000159292
0.000159257
0.000169224
0.000169185
0.000169245
0.000169215
0.000158975
0.000159259
0.00016923
0.000169125
0.000169241
0.000169139
0.000169309
0.000169301
0.000169325
0.000158804
0.000158821
0.000169311
0.000169186
0.000169327
0.000159121
0.000159258
0.000159251
0.000169218
0.000169194
0.000169233
0.000169222
0.00015895
0.000159151
0.000169219
0.00016913
0.000169233
0.000169154
0.000169298
0.000169302
0.000169322
0.000158722
0.000158989
0.000169337
0.000169196
0.000169344
0.000159313
0.000159255
0.000159268
0.000169222
0.00016921
0.000169237
0.000169226
0.000159022
0.000158947
0.000169246
0.000169138
0.000169245
0.00016917
0.000169308
0.000169306
0.000169331
0.000158944
0.000159226
0.00016933
0.000169222
0.000169345
0.000159457
0.000159269
0.000158978
0.000169227
0.000169198
0.000169227
0.000169216
0.000158666
0.000159033
0.000169242
0.000169196
0.000169237
0.000169221
0.000169319
0.0001693
0.000169342
0.000159095
0.00015931
0.000169363
0.000169224
0.000169392
0.000159496
0.000158966
0.000159134
0.00016921
0.000169207
0.000169223
0.000169232
0.000158952
0.00015921
0.000169229
0.000169214
0.00016923
0.000169233
0.000169347
0.000169303
0.000169373
0.000159183
0.000159275
0.000169374
0.000169235
0.000169389
0.000159459
0.000159124
0.000159297
0.000169207
0.000169227
0.00016922
0.000169228
0.000159204
0.000159329
0.000169234
0.000169248
0.000169244
0.000169248
0.000169388
0.000169326
0.0001694
0.00015929
0.00015931
0.000169405
0.000169261
0.000169404
0.000159138
0.000159171
0.000159372
0.000169227
0.00016924
0.000169241
0.000169244
0.000159312
0.000159204
0.000169219
0.00016926
0.000169242
0.00016926
0.000169412
0.00016935
0.000169397
0.000159309
0.00015929
0.000169412
0.000169293
0.000169402
0.000159336
0.000159206
0.000159035
0.000169238
0.000169251
0.00016923
0.000169245
0.000158903
0.000159132
0.000169226
0.000169276
0.000169216
0.000169272
0.000169411
0.000169356
0.000169404
0.000159292
0.000159335
0.000169418
0.000169322
0.000169419
0.000159463
0.000158955
0.000159184
0.000169236
0.000169261
0.000169223
0.000169264
0.000159081
0.00015925
0.000169231
0.000169286
0.000169224
0.000169276
0.00016942
0.000169368
0.000169419
0.000159287
0.000159412
0.000169437
0.000169348
0.000169436
0.000159539
0.000158987
0.000158885
0.000169236
0.000169285
0.000169211
0.000169289
0.000159233
0.000159176
0.000169238
0.000169294
0.000169219
0.000169289
0.000169437
0.00016938
0.000169433
0.000159257
0.000159419
0.000169456
0.000169372
0.000169452
0.000159607
0.000158867
0.000159074
0.000169225
0.00016931
0.000169208
0.000169303
0.000159041
0.000159317
0.000169235
0.000169311
0.000169223
0.000169311
0.000169455
0.00016938
0.000169454
0.000159316
0.000159392
0.000169473
0.000169392
0.000169465
0.000159604
0.000159073
0.000159049
0.000169229
0.000169325
0.000169222
0.000169322
0.000159188
0.000159366
0.000169245
0.000169333
0.000169231
0.000169321
0.000169478
0.000169391
0.000169479
0.000159134
0.000159266
0.000169487
0.000169404
0.000169482
0.000159666
0.000158953
0.000158815
0.000169247
0.000169349
0.000169238
0.000169333
0.000159364
0.00015919
0.000169253
0.000169345
0.000169236
0.000169329
0.000169504
0.000169403
0.000169487
0.000159264
0.000158993
0.000169509
0.000169414
0.000169498
0.00015945
0.000158728
0.000158923
0.000169266
0.000169359
0.000169249
0.00016934
0.000159169
0.000159126
0.000169262
0.000169352
0.000169237
0.000169326
0.000169509
0.000169413
0.000169479
0.000158982
0.000158857
0.000169521
0.000169414
0.000169494
0.000159171
0.00015892
0.00015894
0.000169281
0.000169372
0.000169304
0.000169388
0.000159179
0.000158938
0.000169266
0.000169353
0.000169287
0.00016936
0.000169506
0.000169461
0.000169517
0.000158871
0.00015899
0.000169523
0.000169454
0.000169537
0.000159197
0.0001589
0.000159396
0.000169179
0.000169263
0.000171198
0.000171283
0.000158899
0.000159598
0.000169157
0.000169227
0.000171174
0.000171243
0.000169387
0.000171306
0.000171397
0.000158909
0.000159455
0.000169406
0.000171292
0.000171417
0.000159519
0.000160109
0.000168506
0.000168583
0.00016022
0.000168482
0.000168546
0.000157612
0.000157624
0.000157663
0.000168714
0.000160095
0.000168731
9.22659e-05
5.00195e-05
9.20303e-05
2.36033e-05
2.36065e-05
9.22684e-05
5.00151e-05
0.000122665
0.000122659
0.00012438
0.00012443
0.000124443
0.000124454
0.000121484
9.37812e-05
0.000134317
0.000139615
9.40427e-05
0.000134902
0.000120879
2.36047e-05
0.00012148
0.00013433
0.000139629
0.000134915
9.40636e-05
0.000120877
7.37775e-05
7.37861e-05
0.000137336
7.38784e-05
7.38894e-05
9.27338e-05
5.00344e-05
9.25041e-05
5.00418e-05
2.36092e-05
2.36122e-05
9.27336e-05
5.00319e-05
9.25097e-05
5.00384e-05
0.000125262
0.000125275
0.000125252
0.000127052
0.000127095
0.000127115
0.000127113
0.000122693
9.43641e-05
0.000137596
0.000142536
0.000122099
9.46177e-05
0.000138154
2.36075e-05
2.36106e-05
0.000122686
0.000137609
9.43524e-05
0.000142555
0.000122103
0.000138167
9.46415e-05
7.40446e-05
7.40539e-05
0.000139624
7.41404e-05
7.41519e-05
9.31582e-05
5.00532e-05
9.29547e-05
5.00639e-05
2.36145e-05
2.36172e-05
9.31779e-05
5.00553e-05
9.29607e-05
5.00623e-05
0.000127951
0.000127971
0.000127935
0.000129795
0.000129823
0.00012985
0.000129834
0.000123825
9.49153e-05
0.000140849
0.000145363
0.000123275
9.51608e-05
0.000141372
2.36131e-05
2.3616e-05
0.000123826
0.000140863
9.49048e-05
0.000145389
0.000123277
0.000141387
9.51743e-05
7.42962e-05
7.43022e-05
0.00014161
7.43851e-05
7.43899e-05
9.3556e-05
5.00745e-05
9.33712e-05
5.00855e-05
2.3619e-05
2.36214e-05
9.35716e-05
5.00767e-05
9.3391e-05
5.00826e-05
0.000130692
0.000130719
0.000130667
0.000132572
0.000132575
0.00013261
0.000132578
0.000124875
9.54228e-05
0.000144041
0.00014808
0.000124378
9.56432e-05
0.000144521
2.3618e-05
2.36206e-05
0.000124885
0.000144055
9.54228e-05
0.000148104
0.000124377
0.000144534
9.56578e-05
7.45239e-05
7.45235e-05
0.000143668
7.46025e-05
7.46017e-05
9.39068e-05
5.00986e-05
9.37465e-05
5.01019e-05
2.36228e-05
2.36251e-05
9.39397e-05
5.00907e-05
9.37754e-05
5.01014e-05
0.000133443
0.000133476
0.000133409
0.000135339
0.00013531
0.000135353
0.000135302
0.000125849
9.58767e-05
0.00014714
0.000150654
0.000125397
9.60758e-05
0.000147568
2.36222e-05
2.36246e-05
0.000125866
0.000147153
9.58913e-05
0.000150685
0.000125398
0.000147582
9.61006e-05
7.47203e-05
7.47194e-05
0.000145405
7.47882e-05
7.47888e-05
9.42171e-05
5.01149e-05
9.40871e-05
5.01176e-05
2.36264e-05
2.36287e-05
9.42519e-05
5.01065e-05
9.41176e-05
5.01166e-05
0.000136159
0.000136201
0.000136116
0.000138058
0.000137986
0.000138039
0.000137967
0.000126734
9.628e-05
0.000150117
0.000153077
0.000126339
9.64485e-05
0.000150491
2.3626e-05
2.36283e-05
0.000126766
0.00015013
9.6306e-05
0.000153113
0.000126351
0.000150508
9.64795e-05
7.48862e-05
7.48873e-05
0.000147046
7.49475e-05
7.49466e-05
9.44817e-05
5.01292e-05
9.43582e-05
5.01308e-05
2.36302e-05
2.36326e-05
9.4514e-05
5.01266e-05
9.44003e-05
5.01297e-05
0.000138799
0.000138853
0.000138746
0.000140694
0.000140567
0.000140632
0.000140533
0.000127526
9.66199e-05
0.000152937
0.00015533
0.000127179
9.67596e-05
0.000153253
2.36295e-05
2.36318e-05
0.000127557
0.000152955
9.66586e-05
0.000155371
0.000127199
0.000153276
9.68033e-05
7.5033e-05
7.50296e-05
0.00014853
7.50866e-05
7.50881e-05
9.47059e-05
5.01419e-05
9.461e-05
5.01436e-05
2.36345e-05
2.3637e-05
9.47351e-05
5.01342e-05
9.46362e-05
5.01423e-05
0.000141333
0.000141401
0.000141266
0.000143211
0.000143032
0.00014311
0.00014298
0.000128225
9.6919e-05
0.000155566
0.000157421
0.000127939
9.70509e-05
0.000155823
2.36331e-05
2.36355e-05
0.000128242
0.000155595
9.69649e-05
0.000157467
0.000127937
0.000155859
9.70838e-05
7.51646e-05
7.5163e-05
0.000150114
7.5215e-05
7.52181e-05
9.49008e-05
5.01492e-05
9.48091e-05
5.01575e-05
2.36389e-05
2.36415e-05
9.4932e-05
5.01468e-05
9.48385e-05
5.01549e-05
0.000143736
0.00014382
0.000143654
0.000145579
0.000145345
0.000145437
0.000145278
0.000128824
9.71987e-05
0.000157969
0.000159349
0.000128552
9.73213e-05
0.000158174
2.36372e-05
2.36398e-05
0.000128861
0.000158024
9.72264e-05
0.000159409
0.000128627
0.000158235
9.73467e-05
7.52872e-05
7.52879e-05
0.000151703
7.53417e-05
7.53436e-05
9.50884e-05
5.01625e-05
9.49988e-05
5.01709e-05
2.36435e-05
2.36461e-05
9.5117e-05
5.01647e-05
9.50281e-05
5.01676e-05
0.000145977
0.000146072
0.000145881
0.000147771
0.000147492
0.000147587
0.000147414
0.000129355
9.74792e-05
0.000160149
0.000161099
0.000129158
9.7573e-05
0.000160317
2.36417e-05
2.36443e-05
0.000129355
0.00016022
9.74765e-05
0.000161155
0.000129092
0.000160388
9.75835e-05
7.5393e-05
7.54062e-05
0.00015301
7.54335e-05
7.54515e-05
9.52616e-05
5.01816e-05
9.51812e-05
5.01845e-05
2.36483e-05
2.36511e-05
9.52965e-05
5.01725e-05
9.52084e-05
5.01812e-05
0.000148043
0.000148137
0.000147939
0.000149776
0.000149455
0.000149547
0.000149378
0.000129816
9.76774e-05
0.000162107
0.000162668
0.000129603
9.77839e-05
0.000162251
2.3646e-05
2.36486e-05
0.000129886
0.000162194
9.76896e-05
0.000162721
0.000129626
0.000162338
9.77937e-05
7.54957e-05
7.55072e-05
0.000154243
7.55338e-05
7.55511e-05
9.5429e-05
5.01949e-05
9.53437e-05
5.0198e-05
2.36534e-05
2.36563e-05
9.5461e-05
5.01922e-05
9.53896e-05
5.01947e-05
0.000149913
0.000150002
0.000149813
0.000151572
0.000151217
0.000151299
0.00015114
0.000130317
9.78977e-05
0.00016387
0.000164053
0.000130117
9.79914e-05
0.000163989
2.36508e-05
2.36536e-05
0.000130329
0.000163967
9.79078e-05
0.000164095
0.000130222
0.000164089
9.79799e-05
7.55867e-05
7.56148e-05
0.000155264
7.56211e-05
7.56649e-05
9.5582e-05
5.02086e-05
9.55057e-05
5.02121e-05
2.36587e-05
2.36616e-05
9.56151e-05
5.02071e-05
9.55388e-05
5.02109e-05
0.000151583
0.000151661
0.000151482
0.000153136
0.000152767
0.000152832
0.000152672
0.000130758
9.81013e-05
0.000165437
0.000165253
0.000130508
9.81732e-05
0.000165536
2.36561e-05
2.36591e-05
0.000130835
0.000165519
9.81067e-05
0.00016528
0.000130601
0.000165616
9.81633e-05
7.56568e-05
7.56805e-05
0.000156087
7.56725e-05
7.57107e-05
9.57286e-05
5.02178e-05
9.56507e-05
5.02262e-05
2.36642e-05
2.36671e-05
9.57782e-05
5.02155e-05
9.57054e-05
5.02237e-05
0.000153042
0.000153113
0.00015293
0.000154453
0.00015409
0.000154155
0.000153985
0.000131238
9.82487e-05
0.000166813
0.000166279
0.000131105
9.8338e-05
0.000166882
2.36617e-05
2.36647e-05
0.000131207
0.000166878
9.82469e-05
0.000166306
0.000131018
0.000166954
9.83393e-05
7.57134e-05
7.57194e-05
0.000156794
7.57522e-05
7.57568e-05
9.58735e-05
5.02317e-05
9.58005e-05
5.02403e-05
2.36694e-05
2.36723e-05
9.59165e-05
5.02344e-05
9.58448e-05
5.02367e-05
0.000154264
0.000154338
0.00015415
0.000155516
0.000155134
0.000155211
0.000155038
0.000131639
9.84279e-05
0.000167971
0.000167137
0.000131548
9.85081e-05
0.000168011
2.36672e-05
2.367e-05
0.000131626
0.000168054
9.8427e-05
0.000167181
0.000131432
0.000168098
9.85089e-05
7.57833e-05
7.57954e-05
0.000157401
7.58144e-05
7.5819e-05
9.60168e-05
5.02507e-05
9.59547e-05
5.02533e-05
2.36744e-05
2.36769e-05
9.60403e-05
5.02481e-05
9.59716e-05
5.02514e-05
0.000155192
0.000155271
0.000155109
0.000156301
0.000155843
0.000155926
0.000155791
0.000132012
9.86046e-05
0.000168918
0.000167808
0.000131887
9.87126e-05
0.000168918
2.3672e-05
2.36747e-05
0.000131996
0.00016901
9.85835e-05
0.000167873
0.000131787
0.000169013
9.86729e-05
7.58507e-05
7.58594e-05
0.000157943
7.58806e-05
7.58953e-05
9.61457e-05
5.02583e-05
9.60742e-05
5.0265e-05
2.36783e-05
2.36806e-05
9.61702e-05
5.02617e-05
9.61072e-05
5.02632e-05
0.000155798
0.000155873
0.000155749
0.000156781
0.000156233
0.000156279
0.000156226
0.000132314
9.88292e-05
0.000169604
0.000168284
0.000132189
9.88363e-05
0.000169564
2.36767e-05
2.36791e-05
0.000132333
0.000169706
9.87631e-05
0.000168376
0.000132228
0.000169659
9.88278e-05
7.59096e-05
7.59243e-05
0.000158396
7.59392e-05
7.5954e-05
9.62745e-05
5.02662e-05
9.62167e-05
5.02728e-05
2.3682e-05
2.3684e-05
9.63057e-05
5.02706e-05
9.62308e-05
5.027e-05
0.000156211
0.000156281
0.000156213
0.000156996
0.000156547
0.000156587
0.000156601
0.00013275
9.88835e-05
0.000170035
0.000168591
0.000132611
9.90126e-05
0.000169974
2.36804e-05
2.36823e-05
0.000132737
0.000170114
9.89191e-05
0.000168697
0.000132567
0.000170036
9.90234e-05
7.59776e-05
7.59795e-05
0.000158708
7.60143e-05
7.60065e-05
9.63403e-05
5.02757e-05
9.63058e-05
5.02841e-05
2.36842e-05
2.36857e-05
9.64113e-05
5.0277e-05
9.638e-05
5.02779e-05
0.000156524
0.000156552
0.000156582
0.000157096
0.000156712
0.000156766
0.000156863
0.000133062
9.90379e-05
0.000170262
0.000168794
0.000132892
9.91313e-05
0.000170197
2.36827e-05
2.36843e-05
0.000133065
0.000170295
9.91037e-05
0.000168894
0.000133001
0.000170239
9.91656e-05
7.60566e-05
7.6047e-05
0.000159019
7.60718e-05
7.60835e-05
9.64176e-05
5.02871e-05
9.6394e-05
5.02884e-05
2.36855e-05
2.36865e-05
9.6376e-05
5.02849e-05
9.63801e-05
5.02867e-05
0.000156748
0.000156717
0.000156849
0.000157175
0.000156882
0.000156891
0.000157076
0.000133106
9.91403e-05
0.000170346
0.000168921
0.000133078
9.91858e-05
0.000170343
2.36843e-05
2.36854e-05
0.000133202
0.000170406
9.91572e-05
0.000169012
0.000133192
0.000170394
9.91728e-05
7.60973e-05
7.6085e-05
0.000159217
7.61076e-05
7.61043e-05
9.64534e-05
5.02893e-05
9.6435e-05
5.02903e-05
2.36861e-05
2.36872e-05
9.64669e-05
5.02873e-05
9.64172e-05
5.02881e-05
0.000156811
0.000156916
0.000157032
0.000157192
0.000156923
0.000156983
0.000157241
0.000133306
9.91513e-05
0.00017041
0.000168955
0.000133179
9.91513e-05
0.000170405
2.36851e-05
2.36863e-05
0.000133331
0.000170479
9.92168e-05
0.000169052
0.000133294
0.000170458
9.92438e-05
7.60969e-05
7.61023e-05
0.000159262
7.60972e-05
7.6096e-05
9.64529e-05
5.02896e-05
9.64321e-05
5.02901e-05
2.36865e-05
2.36877e-05
9.65517e-05
5.02872e-05
9.65273e-05
5.02872e-05
0.000156941
0.000156993
0.000157165
0.000157249
0.000157029
0.00015707
0.000157319
0.000133472
9.91279e-05
0.000170434
0.000168991
0.000133387
9.91914e-05
0.000170424
2.36854e-05
2.36863e-05
0.000133339
0.000170507
9.91955e-05
0.000169058
0.000133294
0.000170476
9.92156e-05
7.6091e-05
7.60773e-05
0.000159243
7.61028e-05
7.60911e-05
9.6513e-05
5.02903e-05
9.64989e-05
5.02909e-05
2.36871e-05
2.3688e-05
9.65556e-05
5.02866e-05
9.65446e-05
5.02879e-05
0.000157039
0.000157039
0.00015735
0.000157347
0.000157142
0.000157139
0.000157406
0.000133458
9.91545e-05
0.00017048
0.000169038
0.000133467
9.91721e-05
0.000170487
2.36852e-05
2.36862e-05
0.000133413
0.000170538
9.91822e-05
0.000169078
0.000133331
0.000170535
9.90912e-05
7.60872e-05
7.60785e-05
0.000159337
7.60942e-05
7.60827e-05
9.65024e-05
5.02903e-05
9.64914e-05
5.02912e-05
2.36876e-05
2.36887e-05
9.65531e-05
5.02884e-05
9.65382e-05
5.02898e-05
0.000157166
0.000157149
0.000157412
0.000157397
0.000157273
0.000157244
0.000157472
0.000133317
9.91169e-05
0.000170554
0.000169078
0.00013339
9.90901e-05
0.000170563
2.36856e-05
2.36867e-05
0.000133421
0.000170587
9.91055e-05
0.000169109
0.000133406
0.000170591
9.91345e-05
7.6096e-05
7.60748e-05
0.000159378
7.61037e-05
7.60885e-05
9.65052e-05
5.02916e-05
9.6489e-05
5.02925e-05
2.36883e-05
2.36895e-05
9.65636e-05
5.02905e-05
9.65474e-05
5.02917e-05
0.000157191
0.00015726
0.000157479
0.000157419
0.000157305
0.000157321
0.000157542
0.000133369
9.91007e-05
0.000170614
0.000169115
0.000133349
9.91163e-05
0.000170608
2.36858e-05
2.36869e-05
0.000133391
0.000170625
9.9137e-05
0.000169153
0.000133378
0.000170616
9.9161e-05
7.6098e-05
7.60836e-05
0.000159457
7.61197e-05
7.61052e-05
9.64893e-05
5.0293e-05
9.64861e-05
5.0294e-05
2.36892e-05
2.36903e-05
9.6531e-05
5.02926e-05
9.65356e-05
5.02933e-05
0.000157317
0.000157314
0.000157546
0.000157416
0.000157367
0.000157382
0.000157605
0.000133295
9.91201e-05
0.000170644
0.00016918
0.00013329
9.91212e-05
0.00017065
2.36867e-05
2.36879e-05
0.00013332
0.000170664
9.9118e-05
0.000169209
0.000133293
0.000170666
9.91493e-05
7.6106e-05
7.60944e-05
0.000159414
7.61208e-05
7.61082e-05
9.65059e-05
5.02938e-05
9.64713e-05
5.02943e-05
2.3689e-05
2.36898e-05
9.6542e-05
5.02929e-05
9.65295e-05
5.02928e-05
0.000157373
0.000157378
0.000157595
0.000157425
0.000157442
0.000157429
0.000157659
0.000133311
9.90941e-05
0.000170687
0.000169233
0.000133281
9.91229e-05
0.000170696
2.36875e-05
2.36887e-05
0.000133483
0.000170698
9.91423e-05
0.000169221
0.000133441
0.000170696
9.91919e-05
7.61174e-05
7.61056e-05
0.000159294
7.61263e-05
7.61169e-05
9.65002e-05
5.02936e-05
9.64897e-05
5.02939e-05
2.36888e-05
2.36897e-05
9.65202e-05
5.02923e-05
9.65122e-05
5.02928e-05
0.000157448
0.000157421
0.000157633
0.000157456
0.000157496
0.000157467
0.000157699
0.000133387
9.90969e-05
0.000170725
0.000169252
0.000133351
9.91483e-05
0.000170738
2.36881e-05
2.3689e-05
0.000133401
0.000170711
9.91709e-05
0.000169204
0.000133448
0.000170701
9.91898e-05
7.61088e-05
7.60993e-05
0.000159174
7.61033e-05
7.61188e-05
9.64729e-05
5.02931e-05
9.64579e-05
5.02936e-05
2.3689e-05
2.36901e-05
9.64807e-05
5.02927e-05
9.64703e-05
5.02936e-05
0.000157496
0.000157454
0.000157654
0.000157503
0.000157546
0.000157511
0.000157732
0.000133191
9.91298e-05
0.000170764
0.000169273
0.000133258
9.91486e-05
0.000170802
2.36879e-05
2.36887e-05
0.000133201
0.000170689
9.92035e-05
0.000169183
0.000133204
0.00017067
9.92202e-05
7.61131e-05
7.61142e-05
0.000159079
7.61055e-05
7.61213e-05
9.64233e-05
5.02933e-05
9.64205e-05
5.02938e-05
2.36892e-05
2.369e-05
9.64578e-05
5.02948e-05
9.64307e-05