/*--------------------------------*- C++ -*----------------------------------*\
| =========                 |                                                 |
| \\      /  F ield         | OpenFOAM: The Open Source CFD Toolbox           |
|  \\    /   O peration     | Version:  v2012                                 |
|   \\  /    A nd           | Website:  www.openfoam.com                      |
|    \\/     M anipulation  |                                                 |
\*---------------------------------------------------------------------------*/
FoamFile
{
    version     2.0;
    format      ascii;
    class       surfaceScalarField;
    location    "250";
    object      phi;
}
// * * * * * * * * * * * * * * * * * * * * * * * * * * * * * * * * * * * * * //

dimensions      [0 3 -1 0 0 0 0];
oriented        oriented;


internalField   nonuniform List<scalar> 
248808
(
-2.50619e-07
-2.49951e-07
2.04095e-07
2.03171e-07
0.00119145
-1.26382e-06
2.52279e-07
-2.90169e-07
1.21791e-06
2.5107e-07
8.70283e-07
-2.95425e-07
2.25061e-07
-9.42022e-07
9.40364e-08
0.00114033
1.30359e-06
1.26705e-06
-2.49934e-07
-2.57433e-07
0.000269552
-2.95731e-07
1.25762e-06
2.56504e-07
8.70656e-07
-2.9267e-07
2.22434e-07
-9.41991e-07
9.4017e-08
0.00113987
9.45e-08
-2.93467e-07
1.22041e-06
2.53529e-07
8.73801e-07
-2.94981e-07
2.25679e-07
-9.44333e-07
0.00114099
-1.30425e-06
2.49764e-07
9.68989e-08
-2.99177e-07
1.25701e-06
2.58709e-07
8.73578e-07
-2.94949e-07
2.25569e-07
-9.44384e-07
0.00113996
-2.496e-07
-2.57848e-07
0.000269528
-6.51685e-09
4.75276e-08
0.000191924
-9.10581e-09
-7.31979e-09
4.70689e-08
0.000191946
-8.03773e-09
7.09553e-08
4.04204e-10
0.000228218
-3.25502e-11
-2.84711e-08
2.05487e-07
2.03857e-07
0.00119102
6.84826e-09
2.23806e-08
9.70045e-05
-2.09284e-08
-4.75059e-08
1.17553e-07
0.000244293
1.42253e-08
2.04139e-08
9.70222e-05
1.95497e-08
9.7023e-05
2.05322e-08
4.92501e-08
0.000276276
-1.11819e-08
2.38648e-08
4.86498e-08
0.000276235
-1.26104e-08
1.15107e-07
0.000244302
1.39087e-08
1.14649e-07
0.000244318
1.4713e-08
2.35809e-09
3.64287e-07
9.51689e-07
-8.70308e-07
7.70348e-07
-1.04566e-06
0.0011622
1.75043e-09
0.000250096
-2.8499e-09
2.06926e-07
4.95395e-08
0.00019189
-8.80281e-09
7.09687e-08
0.000228181
-2.85025e-08
4.7973e-10
3.64294e-07
9.51802e-07
-8.73077e-07
7.70447e-07
-1.04836e-06
0.00116217
-2.34682e-08
1.14703e-07
0.000244246
1.69603e-08
0.000250066
2.0954e-07
-3.10202e-09
5.10952e-08
0.000276182
-1.14616e-08
-2.0106e-08
5.14249e-08
0.000276275
-1.13053e-08
6.81666e-09
9.70131e-05
0.000191901
-8.78335e-09
7.44831e-09
-2.94017e-08
-1.43722e-09
0.000191947
-2.95527e-08
5.96922e-08
0.000261131
-3.27393e-10
7.842e-05
1.51975e-10
-2.28606e-08
-7.8467e-05
-2.3399e-09
7.84922e-05
4.63064e-10
6.53338e-09
-3.21994e-08
0.000191971
0.000261243
-2.67718e-08
5.62905e-10
5.9396e-08
-4.44478e-09
-4.67288e-08
0.000261272
5.68908e-10
-2.13625e-08
-9.53908e-10
-0.000142045
0.000142065
2.50629e-09
2.22363e-08
1.23368e-10
-4.83424e-08
0.000228241
0.00022207
-2.89097e-08
7.02941e-08
0.000169549
1.465e-09
4.30136e-10
-4.88023e-08
0.000222096
3.73542e-10
0.00016957
-7.1358e-09
-2.03453e-08
9.70319e-05
-1.77527e-08
9.70474e-05
-1.87126e-08
9.70483e-05
2.45655e-08
-2.15533e-08
-0.000220851
2.04686e-08
-4.97969e-08
0.000220877
0.000250108
-3.75171e-08
1.06076e-07
5.56614e-08
1.00974e-08
-3.45419e-08
-1.72249e-08
0.0002763
0.000181601
3.08813e-08
-1.31572e-08
1.28778e-08
0.000181623
-8.21369e-08
-2.84016e-08
0.000250162
-2.60108e-08
5.96129e-08
2.5152e-08
-2.07991e-08
-0.000220785
1.76528e-08
-5.25962e-08
0.000220816
0.000250017
-3.83212e-08
1.05503e-07
6.14228e-08
8.7272e-09
-3.52105e-08
-1.85917e-08
0.000276262
0.000181551
3.032e-08
-1.40389e-08
1.20604e-08
0.000181573
-8.266e-08
-3.28401e-08
0.000250077
-2.48353e-08
6.13056e-08
1.07033e-08
1.15494e-08
-0.000212249
0.000212265
7.9848e-05
1.29129e-08
7.98346e-05
1.20426e-08
7.98716e-05
7.98582e-05
-2.44524e-08
-7.84175e-05
-3.01898e-09
7.8445e-05
-8.51347e-10
-3.1805e-08
0.000191916
0.000261119
-2.94947e-08
3.43065e-12
5.96136e-08
-4.86706e-09
-4.39015e-08
0.000261142
2.35069e-10
-1.62424e-09
-2.31739e-08
-0.000141971
0.000141993
2.21751e-08
2.56761e-09
-4.58848e-08
0.000228202
0.000169514
2.25216e-09
0.000221977
-3.1091e-08
7.02531e-08
0.000169535
-4.61906e-08
0.000221997
2.68027e-08
-2.09905e-08
-0.000220768
1.80096e-08
-5.23597e-08
0.000220797
0.000249967
-3.82118e-08
1.0553e-07
6.14525e-08
9.1572e-09
-3.71348e-08
-1.88937e-08
0.000276209
0.00018154
3.24606e-08
-1.36121e-08
1.26531e-08
0.000181564
-8.25084e-08
-3.28206e-08
0.000250024
-2.4603e-08
6.12974e-08
-2.1219e-08
2.66711e-08
-0.000220843
2.00632e-08
-4.74819e-08
0.000220865
0.000250113
-3.77605e-08
1.03597e-07
5.58515e-08
-3.69396e-08
8.84448e-09
1.82117e-08
-1.67495e-08
0.000276302
0.000181597
3.27163e-08
-1.35932e-08
-7.95411e-08
-2.82367e-08
0.000250162
1.23729e-08
0.00018162
-2.63298e-08
5.72895e-08
1.09982e-08
1.12152e-08
-0.000212236
0.000212252
7.98293e-05
1.2493e-08
7.98468e-05
1.25066e-08
7.9853e-05
7.98704e-05
-7.0094e-09
9.70383e-05
-2.95906e-08
-7.74852e-10
0.000191924
-4.24348e-10
0.00121621
2.66126e-07
-9.67239e-08
-9.39228e-08
-0.000242534
0.000242622
0.000261267
-1.15693e-07
0.000261691
-1.13832e-07
2.19866e-07
2.28206e-07
0.000271582
0.000261565
0.000261996
-9.41111e-08
-9.62995e-08
-0.000242514
0.000242604
0.000261634
-1.1647e-07
0.000261276
-1.13091e-07
2.27447e-07
2.20381e-07
0.000271555
0.000261581
0.000261934
0.00121535
2.65958e-07
1.24372e-08
1.60444e-07
-0.000264489
0.000265197
-1.02118e-08
0.000260321
3.18616e-08
-7.81793e-08
-1.27092e-08
0.000244338
0.00024999
1.99919e-07
-5.98438e-08
8.16706e-09
0.000260452
4.3869e-08
0.000250102
-7.73422e-09
2.85305e-08
1.55462e-07
1.00967e-08
-0.00026449
0.000265198
-2.82057e-09
0.000260317
3.17783e-08
-1.31154e-08
-7.57421e-08
0.000244344
0.000249998
1.94715e-07
7.91515e-09
4.36945e-08
0.000250105
-8.00217e-09
0.000260445
2.07489e-08
1.58541e-07
9.42496e-09
-0.000264547
-1.50652e-08
0.000265268
0.000260348
3.22875e-08
-1.21892e-08
-7.62444e-08
0.000244356
0.000250065
1.96859e-07
1.09735e-08
-7.2342e-09
0.000250172
0.000260474
3.66123e-08
1.72195e-07
-1.09432e-09
-0.000266545
0.000267311
2.53913e-09
-1.51293e-07
-4.41592e-10
0.000250197
0.000249262
2.23918e-07
0.000266958
-8.60806e-09
7.13398e-09
0.00024938
-4.72021e-09
0.000267581
1.58253e-07
1.18898e-08
-0.00026446
5.0958e-10
0.000265163
0.000260263
3.50175e-08
-1.47525e-08
-7.60428e-08
0.000244286
0.00024997
1.96954e-07
8.52114e-09
-4.85997e-09
0.000250075
0.000260392
2.1501e-08
3.32872e-09
1.72184e-07
-0.000266481
0.000267258
-1.51334e-07
1.52279e-09
0.000250169
0.000266942
-7.42275e-09
0.000249173
2.26429e-07
0.000267559
0.000249296
-1.26974e-06
2.52388e-07
9.53101e-08
0.00114071
-2.90621e-07
1.22304e-06
2.50633e-07
8.705e-07
-2.9268e-07
2.22372e-07
-9.42088e-07
1.2985e-06
1.26443e-06
-2.52553e-07
-2.57831e-07
0.000269543
-2.35396e-07
-2.33907e-07
-0.00119171
1.93269e-07
1.94838e-07
0.00119179
-0.00114037
-1.26686e-06
2.36865e-07
8.99747e-08
0.00114026
-2.88729e-07
1.22259e-06
2.50533e-07
8.70979e-07
-2.89879e-07
-9.38655e-07
2.23174e-07
-0.00113999
-1.26079e-06
2.36173e-07
8.79871e-08
0.00113988
-2.88224e-07
1.21757e-06
2.51052e-07
8.70811e-07
-2.92529e-07
-9.3849e-07
2.25949e-07
-0.000271467
1.29521e-06
1.26148e-06
-2.50938e-07
-2.55877e-07
0.000269417
-2.19456e-07
-2.17117e-07
-0.00119201
1.82383e-07
1.84645e-07
0.00119208
-0.00113994
-1.26387e-06
2.20368e-07
8.45028e-08
0.00113984
-2.86848e-07
1.22247e-06
2.50623e-07
8.71583e-07
-2.86908e-07
-9.35093e-07
2.24168e-07
-0.00113957
-1.25786e-06
2.18826e-07
8.20419e-08
0.00113947
-2.86321e-07
1.21746e-06
2.51124e-07
8.71683e-07
-2.89306e-07
-9.34813e-07
2.27249e-07
-0.000271348
1.29185e-06
1.2586e-06
-2.49304e-07
-2.53807e-07
0.000269301
-2.0154e-07
-1.9891e-07
-0.00119228
1.70153e-07
1.72793e-07
0.00119233
-0.00113955
-1.26062e-06
2.01821e-07
7.82104e-08
0.00113946
-2.8457e-07
1.2227e-06
2.51079e-07
8.72772e-07
-2.83545e-07
-9.31253e-07
2.25621e-07
-0.00113918
-1.25476e-06
1.99365e-07
7.58716e-08
0.00113909
-2.84177e-07
1.21752e-06
2.5143e-07
8.73172e-07
-2.85599e-07
-9.30569e-07
2.28971e-07
-0.000271241
1.28829e-06
1.25542e-06
-2.47391e-07
-2.51448e-07
0.000269196
-1.80405e-07
-1.78604e-07
-0.00119249
1.5642e-07
1.5829e-07
0.00119253
-0.00113919
-1.25689e-06
1.80126e-07
6.99385e-08
0.00113911
-2.81685e-07
1.2236e-06
2.5213e-07
8.7485e-07
-2.79323e-07
-9.26506e-07
2.28014e-07
-0.00113883
-1.25117e-06
1.77262e-07
6.87399e-08
0.00113874
-2.8162e-07
1.21823e-06
2.52156e-07
8.7546e-07
-2.81211e-07
-9.25536e-07
2.31554e-07
-0.000271144
1.28437e-06
1.25144e-06
-2.44618e-07
-2.48802e-07
0.000269101
-1.55794e-07
-1.55963e-07
-0.00119264
1.41104e-07
1.41209e-07
0.00119267
-0.00113887
-1.25235e-06
1.54683e-07
5.95996e-08
0.00113879
-2.78116e-07
1.22528e-06
2.53889e-07
8.7802e-07
-2.74041e-07
-9.20643e-07
2.31468e-07
-0.0011385
-1.24712e-06
1.52415e-07
6.03608e-08
0.00113842
-2.785e-07
1.21945e-06
2.5346e-07
8.78699e-07
-2.75938e-07
-9.19685e-07
2.34998e-07
-0.000271056
1.28031e-06
1.24675e-06
-2.40986e-07
-2.45852e-07
0.000269016
-1.28703e-07
-1.32078e-07
-0.00119274
1.24964e-07
1.22112e-07
0.00119275
-0.00113856
-1.24752e-06
1.27081e-07
4.81515e-08
0.00113849
-2.74207e-07
1.22744e-06
2.5604e-07
8.81956e-07
-2.68138e-07
-9.14216e-07
2.35575e-07
-0.00113819
-1.24272e-06
1.26201e-07
5.19926e-08
0.00113812
-2.75003e-07
1.22115e-06
2.55177e-07
8.82209e-07
-2.70244e-07
-9.13546e-07
2.3892e-07
-0.000270977
1.27614e-06
1.24154e-06
-2.36846e-07
-2.42759e-07
0.000268939
-1.01368e-07
-1.07994e-07
-0.00119277
1.08587e-07
1.02554e-07
0.00119277
-0.00113828
-1.24232e-06
9.92895e-08
3.7288e-08
0.00113821
-2.69755e-07
1.22999e-06
2.58725e-07
8.86114e-07
-2.623e-07
-9.07782e-07
2.39698e-07
-0.0011379
-1.23791e-06
1.00256e-07
4.27562e-08
0.00113783
-2.70964e-07
1.22337e-06
2.57612e-07
8.86156e-07
-2.64738e-07
-9.07278e-07
2.42622e-07
-0.000270905
1.2718e-06
1.23615e-06
-2.32459e-07
-2.39364e-07
0.000268869
-7.56505e-08
-8.38221e-08
-0.00119274
9.14653e-08
8.34041e-08
0.00119272
-0.00113801
-1.23737e-06
7.33712e-08
2.70602e-08
0.00113794
-2.65755e-07
1.23258e-06
2.61254e-07
8.89997e-07
-2.56705e-07
-9.01603e-07
2.43616e-07
-0.00113762
-1.23301e-06
7.6139e-08
3.30422e-08
0.00113755
-2.66915e-07
1.22591e-06
2.60097e-07
8.89622e-07
-2.59651e-07
-9.01723e-07
2.46095e-07
-0.00027084
1.26717e-06
1.23107e-06
-2.28346e-07
-2.35559e-07
0.000268805
-5.30074e-08
-5.97543e-08
-0.00119266
7.3233e-08
6.62764e-08
0.00119263
-0.00113775
-1.23286e-06
5.09097e-08
1.77701e-08
0.00113768
-2.62082e-07
1.23502e-06
2.63457e-07
8.93583e-07
-2.51656e-07
-8.96198e-07
2.47266e-07
-0.00113734
-1.22825e-06
5.42534e-08
2.21836e-08
0.00113728
-2.63099e-07
1.22864e-06
2.6246e-07
8.92745e-07
-2.55009e-07
-8.96548e-07
2.49384e-07
-0.000270779
1.26262e-06
1.22702e-06
-2.25002e-07
-2.3164e-07
0.000268746
-3.44666e-08
-3.7315e-08
-0.00119254
5.52563e-08
5.16315e-08
0.00119251
-0.00113749
-1.2292e-06
3.23269e-08
9.8586e-09
0.00113743
-2.5933e-07
1.2368e-06
2.64911e-07
8.96421e-07
-2.47564e-07
-8.91617e-07
2.50167e-07
-0.00113708
-1.22391e-06
3.47638e-08
1.11125e-08
0.00113702
-2.59543e-07
1.23107e-06
2.64774e-07
8.95658e-07
-2.50786e-07
-8.92036e-07
2.52474e-07
-0.000270722
1.25858e-06
1.22397e-06
-2.22499e-07
-2.2816e-07
0.00026869
-1.95118e-08
-1.94173e-08
-0.00119239
3.94047e-08
3.91081e-08
0.00119235
-0.00113724
-1.2267e-06
1.74204e-08
4.18017e-09
0.00113718
-2.5747e-07
1.23786e-06
2.65954e-07
8.98413e-07
-2.44559e-07
-8.88375e-07
2.5232e-07
-0.00113683
-1.2212e-06
1.85921e-08
3.29403e-09
0.00113678
-2.57364e-07
1.23227e-06
2.65954e-07
8.9787e-07
-2.47479e-07
-8.88553e-07
2.54705e-07
-0.00027067
1.25572e-06
1.2217e-06
-2.21135e-07
-2.26212e-07
0.00026864
-8.02931e-09
-6.55581e-09
-0.00119223
2.68431e-08
2.81241e-08
0.00119219
-0.00113701
-1.22505e-06
5.94629e-09
3.29064e-10
0.00113696
-2.56429e-07
1.23835e-06
2.66297e-07
9.00086e-07
-2.42177e-07
-8.85642e-07
2.53847e-07
-0.00113661
-1.21945e-06
6.10172e-09
-1.28264e-09
0.00113656
-2.56243e-07
1.23293e-06
2.66459e-07
8.9952e-07
-2.44997e-07
-8.85942e-07
2.56573e-07
-0.000270626
1.25324e-06
1.21994e-06
-2.20088e-07
-2.24519e-07
0.000268598
-9.46033e-11
3.69287e-09
-0.00119207
1.58494e-08
1.83094e-08
0.00119204
-0.0011368
-1.22415e-06
-1.18619e-09
-2.04026e-09
0.00113674
-2.55921e-07
1.23838e-06
2.66175e-07
9.00553e-07
-2.40653e-07
-8.84322e-07
2.54796e-07
-0.0011364
-1.21845e-06
-1.39669e-09
-3.5755e-09
0.00113635
-2.55677e-07
1.233e-06
2.66465e-07
9.00543e-07
-2.43417e-07
-8.84033e-07
2.57444e-07
-0.000270589
1.25182e-06
1.21851e-06
-2.19076e-07
-2.23583e-07
0.000268561
3.76641e-09
7.5296e-09
-0.00119193
9.59516e-09
1.25274e-08
0.0011919
-0.0011366
-1.22424e-06
-4.83458e-09
-1.86324e-09
0.00113655
-2.5627e-07
1.23763e-06
2.65665e-07
9.00389e-07
-2.40898e-07
-8.84076e-07
2.54359e-07
-0.0011362
-1.2184e-06
-4.09812e-09
-3.57317e-09
0.00113615
-2.55896e-07
1.23239e-06
2.65956e-07
9.0008e-07
-2.4356e-07
-8.83905e-07
2.56983e-07
-0.000270555
1.25195e-06
1.21824e-06
-2.19055e-07
-2.24084e-07
0.000268528
1.69249e-09
4.64809e-09
-0.00119181
8.64778e-09
1.12126e-08
0.00119178
-0.00113642
-1.22525e-06
-3.54081e-09
-9.62823e-10
0.00113638
-2.57496e-07
1.23628e-06
2.6436e-07
8.99004e-07
-2.4212e-07
-8.85196e-07
2.52891e-07
-0.00113603
-1.21944e-06
-2.34064e-09
-2.38431e-09
0.00113599
-2.5697e-07
1.231e-06
2.6477e-07
8.98665e-07
-2.45019e-07
-8.852e-07
2.55502e-07
-0.000270524
1.25297e-06
1.21894e-06
-2.20088e-07
-2.25494e-07
0.000268498
-1.47764e-09
6.98526e-10
-0.00119171
8.10584e-09
1.11802e-08
0.00119169
-0.00113628
-1.22672e-06
-8.58547e-10
4.71384e-10
0.00113626
-2.59146e-07
1.2346e-06
2.6273e-07
8.96988e-07
-2.4373e-07
-8.871e-07
2.51356e-07
-0.00113588
-1.22062e-06
6.09097e-10
-6.57655e-10
0.00113585
-2.58387e-07
1.22967e-06
2.63451e-07
8.96368e-07
-2.46871e-07
-8.87404e-07
2.53538e-07
-0.0002705
1.2543e-06
1.22021e-06
-2.21769e-07
-2.2727e-07
0.000268474
-3.81833e-09
-1.07028e-09
-0.00119165
6.8226e-09
1.04745e-08
0.00119164
-0.00113618
-1.22739e-06
1.09562e-09
1.67644e-09
0.00113616
-2.59632e-07
1.23394e-06
2.62319e-07
8.95284e-07
-2.45913e-07
-8.88797e-07
2.49122e-07
-0.00113578
-1.22138e-06
2.43311e-09
9.67257e-10
0.00113575
-2.59059e-07
1.22875e-06
2.6272e-07
8.9463e-07
-2.49413e-07
-8.89107e-07
2.5106e-07
-0.000270481
1.25543e-06
1.22184e-06
-2.2351e-07
-2.28846e-07
0.000268456
-2.74248e-09
-2.28393e-09
-0.0011916
5.96179e-09
7.91338e-09
0.0011916
-0.0011361
-1.22752e-06
1.05458e-09
1.27721e-09
0.00113609
-2.59818e-07
1.2337e-06
2.62112e-07
8.94164e-07
-2.47599e-07
-8.90032e-07
2.47491e-07
-0.0011357
-1.22211e-06
7.912e-10
1.22807e-09
0.00113569
-2.60063e-07
1.22799e-06
2.61819e-07
8.93535e-07
-2.50144e-07
-8.90182e-07
2.50333e-07
-0.000270464
1.25642e-06
1.22266e-06
-2.24668e-07
-2.30119e-07
0.00026844
1.82319e-10
-5.73594e-10
-0.00119157
3.53047e-09
3.43699e-09
0.00119157
-0.00113605
-1.22791e-06
-2.21364e-09
3.0318e-10
0.00113605
-2.60324e-07
1.23328e-06
2.61663e-07
8.93464e-07
-2.48069e-07
-8.90639e-07
2.47062e-07
-0.00113566
-1.22261e-06
-1.67318e-09
1.1978e-09
0.00113565
-2.60545e-07
1.22751e-06
2.61411e-07
8.9307e-07
-2.5087e-07
-8.90887e-07
2.49563e-07
-0.000270455
1.25724e-06
1.22284e-06
-2.25486e-07
-2.31231e-07
0.000268432
3.82044e-09
2.2369e-09
-0.00119155
2.13596e-11
-6.67754e-10
0.00119154
-0.00113603
-1.22789e-06
-4.2675e-09
-5.89128e-10
0.00113603
-2.60304e-07
1.23332e-06
2.61636e-07
8.93035e-07
-2.48135e-07
-8.91037e-07
2.46992e-07
-0.00113564
-1.22279e-06
-3.27965e-09
1.96063e-09
0.00113564
-2.60913e-07
1.22732e-06
2.61076e-07
8.92873e-07
-2.51222e-07
-8.91139e-07
2.49302e-07
-0.000270451
1.2574e-06
1.22278e-06
-2.25758e-07
-2.31654e-07
0.000268428
6.16375e-09
4.58848e-09
-0.00119153
-2.23953e-09
-3.23756e-09
0.00119152
-0.00113602
-1.22753e-06
-5.77515e-09
-1.05438e-09
0.00113602
-2.60434e-07
1.23371e-06
2.61532e-07
8.92999e-07
-2.48136e-07
-8.91085e-07
2.46963e-07
-0.00113563
-1.22266e-06
-4.37485e-09
5.93747e-10
0.00113563
-2.6055e-07
1.22739e-06
2.61369e-07
8.92441e-07
-2.51143e-07
-8.91281e-07
2.49399e-07
-0.00027045
1.25734e-06
1.22292e-06
-2.25987e-07
-2.31598e-07
0.000268427
7.81453e-09
5.93467e-09
-0.00119151
-3.40966e-09
-4.8822e-09
0.0011915
-0.00113602
-1.22776e-06
-7.21743e-09
-1.03789e-09
0.00113602
-2.60322e-07
1.23339e-06
2.61576e-07
8.93352e-07
-2.48049e-07
-8.90706e-07
2.47141e-07
-0.00113562
-1.22234e-06
-4.80073e-09
-7.42742e-10
0.00113562
-2.60539e-07
1.22776e-06
2.61476e-07
8.92546e-07
-2.51272e-07
-8.91044e-07
2.49272e-07
-0.000270448
1.25719e-06
1.22281e-06
-2.25719e-07
-2.31358e-07
0.000268425
7.59778e-09
6.54777e-09
-0.00119149
-3.85107e-09
-5.44694e-09
0.00119148
-0.00113602
-1.22808e-06
-7.41647e-09
-1.22084e-09
0.00113602
-2.60667e-07
1.23304e-06
2.61296e-07
8.93651e-07
-2.47954e-07
-8.90511e-07
2.4719e-07
-0.00113562
-1.2223e-06
-4.6874e-09
-2.56017e-10
0.00113562
-2.60529e-07
1.22783e-06
2.61486e-07
8.92637e-07
-2.51329e-07
-8.911e-07
2.49215e-07
-0.000270445
1.25702e-06
1.22269e-06
-2.25652e-07
-2.31308e-07
0.000268422
6.86025e-09
7.11005e-09
-0.00119147
-4.89403e-09
-5.65266e-09
0.00119147
-0.00113602
-1.22807e-06
-6.10413e-09
6.62516e-10
0.00113602
-2.60527e-07
1.23309e-06
2.61432e-07
8.93339e-07
-2.48225e-07
-8.90781e-07
2.46968e-07
-0.00113562
-1.22244e-06
-4.13697e-09
3.06511e-10
0.00113561
-2.60487e-07
1.22769e-06
2.6159e-07
8.92561e-07
-2.5134e-07
-8.9127e-07
2.49255e-07
-0.000270443
1.25729e-06
1.22265e-06
-2.25677e-07
-2.31566e-07
0.00026842
6.03868e-09
6.84844e-09
-0.00119146
-5.1004e-09
-5.56224e-09
0.00119146
-0.00113601
-1.22817e-06
-3.82808e-09
1.98889e-09
0.00113601
-2.60857e-07
1.233e-06
2.61167e-07
8.93169e-07
-2.48329e-07
-8.91019e-07
2.46846e-07
-0.00113561
-1.22272e-06
-3.26503e-09
8.73531e-10
0.00113561
-2.6052e-07
1.22758e-06
2.61475e-07
8.92343e-07
-2.51579e-07
-8.91471e-07
2.49036e-07
-0.000270441
1.25749e-06
1.22301e-06
-2.26049e-07
-2.31945e-07
0.000268419
5.19869e-09
6.38657e-09
-0.00119145
-5.14476e-09
-4.62414e-09
0.00119145
-0.00113599
-1.22841e-06
-2.80537e-09
2.60863e-09
0.00113599
-2.60982e-07
1.23268e-06
2.61008e-07
8.92809e-07
-2.48752e-07
-8.91492e-07
2.46427e-07
-0.0011356
-1.22295e-06
-1.64134e-09
1.91603e-09
0.0011356
-2.61071e-07
1.22734e-06
2.61057e-07
8.925e-07
-2.5201e-07
-8.91442e-07
2.48644e-07
-0.000270441
1.25759e-06
1.22348e-06
-2.26588e-07
-2.31966e-07
0.000268418
4.13756e-09
6.30952e-09
-0.00119145
-5.04136e-09
-3.51866e-09
0.00119145
-0.00113598
-1.22882e-06
-2.72662e-09
3.07128e-09
0.00113598
-2.61435e-07
1.23233e-06
2.60592e-07
8.92846e-07
-2.48921e-07
-8.91441e-07
2.46307e-07
-0.00113559
-1.22309e-06
-2.21335e-09
2.44242e-09
0.00113559
-2.61532e-07
1.22731e-06
2.6066e-07
8.9194e-07
-2.52013e-07
-8.92102e-07
2.48636e-07
-0.000270441
1.25748e-06
1.22393e-06
-2.2701e-07
-2.31947e-07
0.000268418
3.86348e-09
5.76385e-09
-0.00119144
-4.7611e-09
-2.96149e-09
0.00119144
-0.00113598
-1.22892e-06
-2.13476e-09
3.83465e-09
0.00113597
-2.61572e-07
1.23224e-06
2.60492e-07
8.92423e-07
-2.48865e-07
-8.91817e-07
2.46413e-07
-0.00113559
-1.22393e-06
-2.86844e-09
3.56736e-09
0.00113559
-2.62144e-07
1.22657e-06
2.60164e-07
8.9226e-07
-2.52098e-07
-8.92152e-07
2.48599e-07
-0.000270442
1.25714e-06
1.22396e-06
-2.27103e-07
-2.31815e-07
0.00026842
3.93148e-09
4.08196e-09
-0.00119144
-3.38094e-09
-2.80434e-09
0.00119143
-0.00113597
-1.22908e-06
-1.68967e-09
5.02949e-09
0.00113596
-2.61844e-07
1.23217e-06
2.60283e-07
8.92186e-07
-2.49055e-07
-8.92041e-07
2.46208e-07
-0.0011356
-1.22436e-06
-3.99943e-09
5.21231e-09
0.0011356
-2.62333e-07
1.22603e-06
2.59875e-07
8.92167e-07
-2.51937e-07
-8.9195e-07
2.48864e-07
-0.000270444
1.25762e-06
1.22406e-06
-2.27112e-07
-2.32175e-07
0.000268422
3.55886e-09
2.39794e-09
-0.00119143
-2.08187e-09
-2.4246e-09
0.00119143
-0.00113596
-1.22915e-06
-2.209e-09
5.31299e-09
0.00113596
-2.61998e-07
1.23222e-06
2.60185e-07
8.92341e-07
-2.49379e-07
-8.92153e-07
2.45813e-07
-0.00113561
-1.22474e-06
-3.59547e-09
6.32124e-09
0.00113561
-2.62783e-07
1.22583e-06
2.59581e-07
8.92232e-07
-2.51788e-07
-8.91824e-07
2.48982e-07
-0.000270446
1.25796e-06
1.2238e-06
-2.26877e-07
-2.32458e-07
0.000268423
3.55077e-09
1.06472e-09
-0.00119143
-1.20797e-09
-2.13053e-09
0.00119143
-0.00113595
-1.22958e-06
-1.63878e-09
4.9349e-09
0.00113595
-2.61908e-07
1.23183e-06
2.60337e-07
8.92047e-07
-2.49717e-07
-8.92269e-07
2.45553e-07
-0.00113561
-1.22462e-06
-2.44076e-09
6.09641e-09
0.00113561
-2.62694e-07
1.22599e-06
2.59643e-07
8.91941e-07
-2.51977e-07
-8.92101e-07
2.48798e-07
-0.000270446
1.25819e-06
1.22371e-06
-2.26914e-07
-2.32551e-07
0.000268424
3.12998e-09
1.66771e-11
-0.00119143
-2.53002e-10
-2.13773e-09
0.00119143
-0.00113595
-1.22944e-06
-5.64304e-10
4.01423e-09
0.00113595
-2.61978e-07
1.23201e-06
2.60309e-07
8.91785e-07
-2.49754e-07
-8.92568e-07
2.45573e-07
-0.00113561
-1.22461e-06
-2.42821e-09
5.63877e-09
0.00113561
-2.62767e-07
1.22598e-06
2.59576e-07
8.92167e-07
-2.52095e-07
-8.9192e-07
2.48695e-07
-0.000270447
1.258e-06
1.22413e-06
-2.27282e-07
-2.32309e-07
0.000268425
2.24691e-09
-3.58956e-10
-0.00119143
1.65921e-10
-1.59847e-09
0.00119143
-0.00113595
-1.22954e-06
5.00717e-10
3.91063e-09
0.00113595
-2.62148e-07
1.23196e-06
2.60204e-07
8.91716e-07
-2.49697e-07
-8.92672e-07
2.45666e-07
-0.00113562
-1.22465e-06
-3.78697e-09
5.34988e-09
0.00113562
-2.62462e-07
1.22581e-06
2.59804e-07
8.92282e-07
-2.51798e-07
-8.91829e-07
2.48995e-07
-0.000270447
1.25755e-06
1.22478e-06
-2.27843e-07
-2.31865e-07
0.000268425
7.18064e-10
-2.53724e-10
-0.00119143
1.11945e-10
-4.92334e-10
0.00119143
-0.00113595
-1.22963e-06
1.37189e-10
5.09386e-09
0.00113595
-2.62598e-07
1.23179e-06
2.59627e-07
8.91922e-07
-2.49843e-07
-8.92696e-07
2.45455e-07
-0.00113562
-1.22453e-06
-4.47688e-09
4.71368e-09
0.00113562
-2.62452e-07
1.22589e-06
2.59851e-07
8.92473e-07
-2.51539e-07
-8.91583e-07
2.49235e-07
-0.000270447
1.25732e-06
1.22489e-06
-2.2789e-07
-2.31641e-07
0.000268424
-6.70746e-11
8.49764e-11
-0.00119143
-4.76528e-10
-1.54071e-10
0.00119143
-0.00113595
-1.22998e-06
-1.49407e-11
5.28401e-09
0.00113595
-2.62511e-07
1.23139e-06
2.59704e-07
8.91846e-07
-2.49615e-07
-8.92551e-07
2.45736e-07
-0.00113563
-1.22441e-06
-5.06226e-09
4.46768e-09
0.00113563
-2.62343e-07
1.22586e-06
2.59825e-07
8.92565e-07
-2.51594e-07
-8.91393e-07
2.49148e-07
-0.000270445
1.25724e-06
1.22475e-06
-2.27797e-07
-2.31603e-07
0.000268423
-7.82876e-11
8.4267e-11
-0.00119144
-6.6674e-10
-3.24229e-11
0.00119144
-0.00113595
-1.22978e-06
-4.40155e-11
4.64494e-09
0.00113595
-2.62228e-07
1.23153e-06
2.59978e-07
8.91689e-07
-2.49658e-07
-8.92602e-07
2.45627e-07
-0.00113563
-1.22449e-06
-4.79482e-09
4.71081e-09
0.00113563
-2.62494e-07
1.22588e-06
2.59793e-07
8.92446e-07
-2.51703e-07
-8.91698e-07
2.48995e-07
-0.000270446
1.25726e-06
1.22471e-06
-2.27828e-07
-2.31754e-07
0.000268423
7.68591e-10
7.46524e-10
-0.00119144
-6.36029e-10
-7.15046e-10
0.00119144
-0.00113594
-1.22938e-06
-1.6278e-09
3.93632e-09
0.00113594
-2.6169e-07
1.23182e-06
2.60467e-07
8.91669e-07
-2.49778e-07
-8.92562e-07
2.45406e-07
-0.00113564
-1.22419e-06
-4.3459e-09
4.32893e-09
0.00113564
-2.62195e-07
1.22613e-06
2.60032e-07
8.92026e-07
-2.51986e-07
-8.92039e-07
2.48687e-07
-0.000270446
1.25774e-06
1.22432e-06
-2.27448e-07
-2.32087e-07
0.000268423
2.82059e-09
2.03197e-09
-0.00119144
-1.30933e-09
-1.91165e-09
0.00119144
-0.00113594
-1.22881e-06
-2.15725e-09
2.60879e-09
0.00113595
-2.61311e-07
1.23246e-06
2.60753e-07
8.91204e-07
-2.50002e-07
-8.92818e-07
2.44971e-07
-0.00113564
-1.22373e-06
-3.79672e-09
2.7583e-09
0.00113564
-2.61685e-07
1.22659e-06
2.60421e-07
8.91888e-07
-2.51952e-07
-8.91993e-07
2.48459e-07
-0.000270445
1.25803e-06
1.22426e-06
-2.27352e-07
-2.32321e-07
0.000268422
3.71782e-09
4.07877e-09
-0.00119144
-2.77929e-09
-2.84771e-09
0.00119144
-0.00113594
-1.22865e-06
-2.11167e-09
1.01425e-09
0.00113595
-2.61062e-07
1.23248e-06
2.60921e-07
8.91133e-07
-2.49857e-07
-8.92655e-07
2.44838e-07
-0.00113563
-1.22312e-06
-2.40429e-09
1.11965e-09
0.00113564
-2.61059e-07
1.22704e-06
2.60899e-07
8.91457e-07
-2.52269e-07
-8.9218e-07
2.47864e-07
-0.000270443
1.25788e-06
1.22418e-06
-2.27206e-07
-2.32206e-07
0.00026842
4.89918e-09
6.93042e-09
-0.00119145
-4.83321e-09
-4.09292e-09
0.00119145
-0.00113594
-1.2284e-06
-2.74115e-09
8.61786e-11
0.00113595
-2.60733e-07
1.23243e-06
2.60925e-07
8.90895e-07
-2.49529e-07
-8.92327e-07
2.44511e-07
-0.00113563
-1.2225e-06
-2.36952e-09
-1.87764e-09
0.00113563
-2.60348e-07
1.22736e-06
2.61258e-07
8.91157e-07
-2.52017e-07
-8.9181e-07
2.47438e-07
-0.000270441
1.2577e-06
1.22398e-06
-2.27123e-07
-2.31957e-07
0.000268418
7.35354e-09
9.83644e-09
-0.00119145
-7.31601e-09
-6.71246e-09
0.00119145
-0.00113594
-1.22818e-06
-4.98171e-09
-1.90463e-10
0.00113595
-2.60752e-07
1.23208e-06
2.60265e-07
8.90667e-07
-2.48615e-07
-8.91262e-07
2.44003e-07
-0.00113562
-1.22221e-06
-3.79989e-09
-1.74822e-09
0.00113563
-2.60019e-07
1.22716e-06
2.60989e-07
8.90229e-07
-2.51304e-07
-8.91536e-07
2.46696e-07
-0.000270439
1.25742e-06
1.22375e-06
-2.26821e-07
-2.31636e-07
0.000268416
9.37126e-09
1.34309e-08
-0.00119146
-1.08025e-08
-8.72852e-09
0.00119146
-0.00113594
-1.22815e-06
-8.16891e-09
1.99931e-09
0.00113595
-2.60598e-07
1.23098e-06
2.59098e-07
8.89248e-07
-2.46779e-07
-8.9018e-07
2.42791e-07
-0.00113562
-1.2216e-06
-6.25105e-09
-2.29993e-09
0.00113562
-2.59629e-07
1.22677e-06
2.60197e-07
8.88704e-07
-2.49764e-07
-8.9044e-07
2.45144e-07
-0.000270437
1.25711e-06
1.22309e-06
-2.25848e-07
-2.31242e-07
0.000268414
1.20457e-08
1.79231e-08
-0.00119146
-1.56772e-08
-1.16676e-08
0.00119146
-0.00113594
-1.22717e-06
-1.25987e-08
3.36053e-09
0.00113595
-2.59505e-07
1.22909e-06
2.56931e-07
8.86598e-07
-2.42866e-07
-8.87242e-07
2.39232e-07
-0.00113561
-1.22034e-06
-1.03515e-08
-1.63647e-09
0.00113562
-2.58048e-07
1.22514e-06
2.58428e-07
8.85819e-07
-2.46238e-07
-8.87781e-07
2.41263e-07
-0.000270436
1.25588e-06
1.22151e-06
-2.23842e-07
-2.29564e-07
0.000268412
1.69962e-08
2.31719e-08
-0.00119146
-2.28946e-08
-1.85313e-08
0.00119146
-0.00113593
-1.22398e-06
-1.95058e-08
6.59818e-09
0.00113595
-2.55639e-07
1.22433e-06
2.51209e-07
8.80084e-07
-2.33948e-07
-8.81341e-07
2.29321e-07
-0.0011356
-1.21736e-06
-1.67244e-08
2.15941e-09
0.00113562
-2.54484e-07
1.22018e-06
2.52451e-07
8.79171e-07
-2.37452e-07
-8.81927e-07
2.31239e-07
-0.000270437
1.25228e-06
1.21783e-06
-2.18687e-07
-2.24597e-07
0.00026841
4.15474e-08
4.64804e-08
-0.00119146
-4.18464e-08
-4.38749e-08
0.00119146
-0.00113593
-1.21423e-06
-3.87307e-08
1.45525e-09
0.00113598
-2.42164e-07
1.21433e-06
2.39131e-07
8.68246e-07
-2.1314e-07
-8.69084e-07
2.05529e-07
-0.0011356
-1.20513e-06
-4.21009e-08
5.18136e-09
0.00113565
-2.41278e-07
1.20718e-06
2.37239e-07
8.6457e-07
-2.13805e-07
-8.67039e-07
2.07701e-07
-0.000270446
1.24521e-06
1.208e-06
-2.01947e-07
-2.07785e-07
0.000268403
9.71895e-07
9.8304e-07
-0.00119137
-8.72747e-07
-8.58312e-07
0.00119114
-0.00113623
-1.10845e-06
-9.76978e-07
-3.90759e-07
0.00113673
-1.30987e-07
1.36605e-06
2.95709e-07
9.87064e-07
-7.49502e-08
-7.41812e-07
2.74332e-07
-0.00113591
-1.09948e-06
-9.86087e-07
-4.03e-07
0.00113642
-1.30187e-07
1.36139e-06
2.99229e-07
9.83367e-07
-8.13446e-08
-7.3969e-07
2.7672e-07
-0.000270539
1.1417e-06
1.09944e-06
-9.39584e-08
-9.66984e-08
0.000268488
5.52587e-06
5.51967e-06
-0.00117841
-1.17216e-05
-1.16099e-05
0.00028675
0.000289271
0.000288882
0.000288882
4.52253e-06
6.74994e-06
7.17827e-06
4.52747e-06
6.75184e-06
7.18291e-06
-0.000281736
5.4019e-06
-5.51634e-06
5.97303e-06
-3.39014e-06
0.000279267
-0.000281716
-5.51843e-06
5.40803e-06
-3.39919e-06
5.96978e-06
0.000279256
-0.000271497
-5.39904e-06
-5.41088e-06
5.72402e-06
5.71181e-06
0.000270871
-1.2575e-06
-1.22011e-06
0.000271486
-0.000269456
2.19553e-07
2.28072e-07
-1.30986e-06
2.50984e-07
9.73932e-08
0.00114031
-2.99351e-07
1.26238e-06
2.58564e-07
8.76185e-07
-2.95356e-07
2.25298e-07
-9.47477e-07
0.00113953
2.39292e-07
-0.00113965
8.90459e-08
-1.30117e-06
2.56705e-07
-2.94068e-07
-9.39507e-07
2.22944e-07
-2.90568e-07
8.70872e-07
1.2622e-06
0.00113997
2.3961e-07
-0.00114008
9.28943e-08
-1.30753e-06
2.58705e-07
-2.97767e-07
-9.4508e-07
2.25815e-07
-2.93344e-07
8.76415e-07
-2.52643e-07
-2.5535e-07
0.000269571
-1.2227e-06
0.000271512
-0.000269474
2.22345e-07
2.24608e-07
0.00114065
2.38034e-07
-0.00114076
9.03064e-08
-1.26484e-06
2.53509e-07
-2.9205e-07
-9.41713e-07
2.26389e-07
-2.92827e-07
8.74199e-07
1.25689e-06
0.00113962
2.3792e-07
-0.00113973
9.17846e-08
-1.30179e-06
2.58922e-07
-2.97532e-07
-9.41832e-07
2.2607e-07
-2.92898e-07
8.73835e-07
2.5132e-07
9.52412e-08
0.00113976
-2.93247e-07
1.25184e-06
2.53387e-07
8.70521e-07
-2.9272e-07
2.22303e-07
-9.42136e-07
2.4085e-07
-0.00114048
9.12977e-08
-1.2676e-06
2.50518e-07
-2.89237e-07
-9.39538e-07
2.22942e-07
8.70784e-07
-2.90622e-07
1.25176e-06
0.00113942
2.39761e-07
-0.00113953
8.99399e-08
-1.29601e-06
2.53683e-07
-2.91511e-07
-9.39602e-07
2.22842e-07
-2.90705e-07
8.70735e-07
-1.21764e-06
0.000271459
-0.000269432
2.20032e-07
2.27296e-07
2.5146e-07
9.54154e-08
0.00114087
-2.90731e-07
1.21764e-06
2.50723e-07
8.70686e-07
-2.954e-07
2.25242e-07
-9.42102e-07
2.40368e-07
-0.0011401
8.95421e-08
-1.26156e-06
2.51024e-07
-2.88767e-07
-9.39418e-07
2.25676e-07
8.70673e-07
-2.9334e-07
1.21734e-06
0.00114053
2.39402e-07
-0.00114064
9.09316e-08
-1.26218e-06
2.50695e-07
-2.89324e-07
-9.39482e-07
2.25957e-07
-2.932e-07
8.71081e-07
-0.000269447
2.22105e-07
2.27753e-07
1.3004e-06
1.26414e-06
-2.48314e-07
-2.55568e-07
0.000269426
-1.25747e-06
-1.21984e-06
0.000271368
-0.000269338
2.19248e-07
2.28003e-07
8.75394e-08
0.00113943
-2.93506e-07
1.25749e-06
2.56765e-07
8.70977e-07
-2.89893e-07
-9.3871e-07
2.23136e-07
-1.30675e-06
2.35766e-07
9.14799e-08
0.00113986
-2.97235e-07
1.26213e-06
2.58767e-07
8.76468e-07
-2.92692e-07
-9.44217e-07
2.2597e-07
0.00113911
2.23647e-07
-0.00113921
8.28664e-08
-1.29802e-06
2.57019e-07
-2.9189e-07
-9.36128e-07
2.23797e-07
-2.87768e-07
8.71381e-07
1.26214e-06
0.00113955
2.24068e-07
-0.00113965
8.67697e-08
-1.3044e-06
2.58992e-07
-2.95597e-07
-9.41778e-07
2.26558e-07
-2.90664e-07
8.76813e-07
-2.51089e-07
-2.53546e-07
0.000269443
-1.22243e-06
0.000271392
-0.000269354
2.21976e-07
2.24497e-07