/*--------------------------------*- C++ -*----------------------------------*\
| =========                 |                                                 |
| \\      /  F ield         | OpenFOAM: The Open Source CFD Toolbox           |
|  \\    /   O peration     | Version:  v2012                                 |
|   \\  /    A nd           | Website:  www.openfoam.com                      |
|    \\/     M anipulation  |                                                 |
\*---------------------------------------------------------------------------*/
FoamFile
{
    version     2.0;
    format      ascii;
    class       volVectorField;
    location    "250";
    object      U;
}
// * * * * * * * * * * * * * * * * * * * * * * * * * * * * * * * * * * * * * //

dimensions      [0 1 -1 0 0 0 0];


internalField   nonuniform List<vector> 
85864
(
(2.48324e-05 2.48916e-05 0.113183)
(1.23158e-05 -2.15264e-05 0.108302)
(4.82608e-05 4.83726e-05 0.104751)
(1.23566e-05 2.14381e-05 0.108303)
(2.13269e-05 1.2421e-05 0.108304)
(2.13401e-05 -1.26097e-05 0.1083)
(4.81947e-05 -4.84935e-05 0.104749)
(-9.02899e-08 1.29696e-05 0.0815108)
(1.27908e-05 2.12051e-07 0.0815111)
(1.5422e-05 -2.90193e-07 0.0909247)
(2.48508e-05 -2.50537e-05 0.113182)
(6.39507e-06 -4.12666e-06 0.0708075)
(7.31559e-06 -2.23376e-05 0.0925736)
(4.03636e-06 6.47235e-06 0.070812)
(6.28737e-06 4.42286e-06 0.0708121)
(7.2285e-06 9.54487e-06 0.0869345)
(9.29353e-06 7.62408e-06 0.0869328)
(7.18646e-06 2.23134e-05 0.0925765)
(2.21664e-05 7.5038e-06 0.0925762)
(3.14255e-05 5.47084e-06 0.110869)
(2.90495e-05 2.99481e-07 0.0985101)
(1.29309e-05 -6.3467e-09 0.0815086)
(1.54353e-05 4.60871e-07 0.0909245)
(3.14137e-05 -5.70546e-06 0.110868)
(2.22161e-05 -7.4187e-06 0.0925737)
(2.90539e-05 -3.14086e-07 0.09851)
(9.39862e-06 -7.43469e-06 0.0869289)
(7.39867e-06 -9.47415e-06 0.0869312)
(4.19038e-06 -6.40574e-06 0.0708099)
(4.62215e-09 -1.295e-05 0.0815085)
(-2.37582e-06 -9.85293e-06 0.081568)
(-8.39904e-07 1.16698e-05 0.0851525)
(-1.32659e-06 7.01997e-06 0.067693)
(-6.4845e-06 -2.21331e-07 0.067766)
(-1.0072e-05 -1.96614e-06 0.081569)
(1.15708e-05 -5.03469e-07 0.0851536)
(-1.0167e-05 -1.57501e-06 0.0852166)
(6.99175e-06 -9.51561e-07 0.0676955)
(-6.15671e-06 -1.76781e-07 0.0762023)
(-1.15444e-05 -5.04029e-07 0.0909748)
(1.51586e-05 8.48649e-08 0.0893572)
(7.3531e-06 -5.39811e-07 0.0779377)
(-1.12342e-05 -1.04952e-06 0.0894136)
(-6.33404e-06 -3.37464e-07 0.0779833)
(7.96319e-06 -1.11259e-06 0.0761489)
(-6.16811e-06 2.57747e-06 0.0708741)
(-2.74549e-06 -6.16389e-06 0.0708742)
(-6.37401e-06 -2.34739e-06 0.0708749)
(-6.92608e-06 -1.39827e-05 0.0912794)
(1.59591e-05 2.48826e-05 0.0960435)
(-5.13667e-06 -6.27996e-06 0.0869908)
(4.26584e-06 8.27967e-06 0.0809024)
(-4.15313e-06 -5.96517e-06 0.0809605)
(-6.60996e-06 -1.73814e-05 0.0961024)
(9.89561e-06 1.64473e-05 0.0912232)
(-1.4236e-05 -6.63798e-06 0.0912724)
(2.46314e-05 1.62294e-05 0.0960402)
(-6.55451e-06 -4.75799e-06 0.0869898)
(7.99026e-06 4.65061e-06 0.0808965)
(-6.27574e-06 -3.79942e-06 0.0809549)
(-1.75927e-05 -6.35842e-06 0.0960997)
(1.61821e-05 1.02263e-05 0.0912161)
(-5.83139e-06 -5.49027e-06 0.0830663)
(5.62628e-06 4.11281e-06 0.0677203)
(3.80804e-06 5.98857e-06 0.067714)
(-5.59297e-06 -3.61488e-06 0.0677846)
(-3.91543e-06 -5.25158e-06 0.0677784)
(6.69912e-06 7.05282e-06 0.0830139)
(-6.33046e-06 4.85071e-07 0.0677674)
(-9.87897e-06 2.20374e-06 0.0815679)
(1.16747e-05 7.26985e-07 0.0851513)
(-9.99221e-06 1.78065e-06 0.0852161)
(7.02041e-06 1.28439e-06 0.0676922)
(-6.03828e-06 4.65066e-07 0.0762021)
(-1.15229e-05 6.2547e-07 0.0909745)
(7.37044e-06 9.01406e-07 0.0779372)
(1.51683e-05 8.15265e-08 0.0893558)
(-6.30506e-06 6.57052e-07 0.0779831)
(-1.11515e-05 1.16762e-06 0.0894132)
(7.99798e-06 1.43952e-06 0.076146)
(-1.41284e-05 6.74919e-06 0.0912704)
(2.46686e-05 -1.62211e-05 0.0960376)
(-6.37246e-06 4.96048e-06 0.0869887)
(8.11705e-06 -4.47265e-06 0.0808936)
(-6.05137e-06 4.06039e-06 0.0809538)
(-1.75149e-05 6.39047e-06 0.096098)
(1.62064e-05 -1.01611e-05 0.0912134)
(-6.77438e-06 1.40066e-05 0.0912767)
(1.60364e-05 -2.48512e-05 0.0960406)
(-4.94278e-06 6.39186e-06 0.0869883)
(4.43396e-06 -8.15599e-06 0.0808986)
(-6.5309e-06 1.73622e-05 0.0960998)
(-3.93331e-06 6.08404e-06 0.0809579)
(9.99944e-06 -1.64045e-05 0.0912203)
(-5.65312e-06 5.67166e-06 0.0830639)
(3.99121e-06 -5.80049e-06 0.0677118)
(5.82694e-06 -3.9529e-06 0.0677176)
(-3.69384e-06 5.50679e-06 0.0677769)
(-5.37297e-06 3.80922e-06 0.0677824)
(6.84714e-06 -6.92057e-06 0.0830114)
(-2.54497e-06 6.26961e-06 0.0708724)
(-2.18361e-06 9.94275e-06 0.0815654)
(3.33829e-05 1.10357e-05 0.115073)
(-1.73807e-05 -1.71635e-05 0.0974659)
(4.65994e-05 2.81307e-05 0.101634)
(2.79265e-05 4.66991e-05 0.10163)
(-3.55711e-05 -3.54205e-05 0.104915)
(-3.74855e-05 -1.78405e-05 0.101725)
(-1.8027e-05 -3.73005e-05 0.101722)
(2.18594e-05 2.20743e-05 0.0973945)
(-1.7297e-05 1.71694e-05 0.0974633)
(2.79022e-05 -4.67974e-05 0.101628)
(4.65386e-05 -2.8177e-05 0.101632)
(-3.55496e-05 3.53536e-05 0.104913)
(-3.7479e-05 1.7806e-05 0.101723)
(-1.79731e-05 3.72505e-05 0.10172)
(2.18336e-05 -2.21155e-05 0.0973922)
(3.33886e-05 -1.12036e-05 0.115073)
(-7.66889e-07 4.15933e-05 0.101665)
(1.39154e-05 -5.74353e-05 0.0995238)
(-6.39841e-06 1.07475e-05 0.09264)
(3.97695e-06 -2.54519e-05 0.0953411)
(-4.34276e-06 4.00945e-05 0.0996014)
(-3.04154e-06 1.51423e-05 0.0954221)
(9.38458e-06 -6.07034e-05 0.101526)
(-8.65508e-07 -4.16694e-05 0.101666)
(1.38653e-05 5.74484e-05 0.0995266)
(-6.54919e-06 -1.06818e-05 0.0926421)
(3.85745e-06 2.53843e-05 0.0953444)
(-3.16654e-06 -1.51211e-05 0.0954246)
(-4.4151e-06 -4.01283e-05 0.0996031)
(9.3554e-06 6.0657e-05 0.101529)
(-4.18255e-05 -6.28218e-07 0.101666)
(5.72277e-05 1.40727e-05 0.0995251)
(-1.08918e-05 -6.20704e-06 0.092643)
(2.52851e-05 4.12845e-06 0.0953437)
(-1.53201e-05 -2.84868e-06 0.0954248)
(-4.02828e-05 -4.16988e-06 0.0996028)
(6.04828e-05 9.52167e-06 0.101527)
(-3.80588e-05 1.66496e-06 0.10335)
(-1.33822e-05 -2.81605e-07 0.0985796)
(2.88668e-05 2.0769e-06 0.0974433)
(6.29471e-05 1.09761e-06 0.103943)
(-1.40092e-05 -6.20491e-07 0.0975235)
(-3.61272e-05 9.67713e-07 0.104074)
(6.25033e-05 4.84191e-06 0.10319)
(-4.17511e-05 5.39371e-07 0.101664)
(5.72567e-05 -1.41109e-05 0.0995227)
(-1.07921e-05 6.26217e-06 0.0926415)
(2.53386e-05 -4.08907e-06 0.0953425)
(-1.52088e-05 2.8739e-06 0.0954237)
(-4.0262e-05 4.12925e-06 0.0996007)
(6.05636e-05 -9.6103e-06 0.101526)
(-3.80787e-05 -1.77196e-06 0.103349)
(-1.33859e-05 2.56901e-07 0.0985792)
(6.29545e-05 -1.2398e-06 0.103943)
(2.88484e-05 -2.07787e-06 0.0974428)
(-3.6155e-05 -1.09827e-06 0.104074)
(-1.39659e-05 6.17036e-07 0.0975227)
(6.24861e-05 -4.97585e-06 0.10319)
(-2.15093e-05 1.24469e-05 0.108304)
(-4.84142e-05 -4.84044e-05 0.10475)
(2.35895e-05 2.37176e-05 0.113216)
(-2.01948e-05 1.17677e-05 0.10826)
(1.1581e-05 -2.01581e-05 0.108259)
(-4.75586e-05 -4.74195e-05 0.104702)
(2.22321e-05 2.2424e-05 0.113245)
(-1.88139e-05 1.10908e-05 0.10822)
(1.08618e-05 -1.8691e-05 0.108219)
(-4.67238e-05 -4.64136e-05 0.104657)
(2.06768e-05 2.09086e-05 0.113269)
(-1.72566e-05 1.02902e-05 0.108184)
(1.01128e-05 -1.70508e-05 0.108183)
(-4.57601e-05 -4.52928e-05 0.104617)
(1.88531e-05 1.90187e-05 0.113288)
(-1.53662e-05 9.27562e-06 0.10815)
(9.21021e-06 -1.51078e-05 0.108149)
(-4.44569e-05 -4.4027e-05 0.104581)
(1.68082e-05 1.68077e-05 0.113303)
(-1.31318e-05 8.01184e-06 0.10812)
(8.11646e-06 -1.28853e-05 0.108119)
(-4.28836e-05 -4.26905e-05 0.104549)
(1.46245e-05 1.43371e-05 0.113311)
(-1.0642e-05 6.60792e-06 0.108091)
(6.96688e-06 -1.04877e-05 0.10809)
(-4.10901e-05 -4.13049e-05 0.104519)
(1.24071e-05 1.1795e-05 0.113313)
(-8.09053e-06 5.15528e-06 0.108064)
(5.63055e-06 -8.07149e-06 0.108062)
(-3.92449e-05 -3.98335e-05 0.104493)
(1.01513e-05 9.35315e-06 0.11331)
(-5.69676e-06 3.82505e-06 0.108039)
(4.29262e-06 -5.83221e-06 0.108035)
(-3.74814e-05 -3.82231e-05 0.104469)
(7.82924e-06 7.14657e-06 0.113302)
(-3.57499e-06 2.59046e-06 0.108014)
(2.94754e-06 -3.83882e-06 0.108009)
(-3.60464e-05 -3.66133e-05 0.104446)
(5.63189e-06 5.27955e-06 0.11329)
(-1.83649e-06 1.52734e-06 0.107989)
(1.61824e-06 -2.06447e-06 0.107985)
(-3.49991e-05 -3.51747e-05 0.104425)
(3.71167e-06 3.69483e-06 0.113276)
(-4.94551e-07 7.58636e-07 0.107966)
(7.03269e-07 -6.21493e-07 0.107961)
(-3.43636e-05 -3.43376e-05 0.104406)
(2.18334e-06 2.3482e-06 0.113261)
(5.6535e-07 2.26235e-07 0.107944)
(1.26859e-07 5.1046e-07 0.10794)
(-3.38846e-05 -3.36126e-05 0.10439)
(9.67768e-07 1.21468e-06 0.113246)
(1.18624e-06 -2.94055e-08 0.107924)
(-1.35824e-07 1.20441e-06 0.10792)
(-3.34786e-05 -3.31537e-05 0.104376)
(3.74159e-07 6.70769e-07 0.113232)
(1.27593e-06 -2.90773e-08 0.107905)
(-1.66577e-07 1.233e-06 0.107902)
(-3.34437e-05 -3.33351e-05 0.104363)
(3.01303e-07 5.51631e-07 0.113221)
(9.14852e-07 9.2182e-08 0.107889)
(-1.70699e-08 8.65312e-07 0.107885)
(-3.38135e-05 -3.38295e-05 0.104352)
(2.98989e-07 5.6865e-07 0.113212)
(4.14595e-07 4.03264e-07 0.107877)
(2.12189e-07 2.6662e-07 0.107872)
(-3.44036e-05 -3.44695e-05 0.104342)
(1.81194e-07 5.40307e-07 0.113207)
(-2.86164e-08 5.62561e-07 0.107867)
(4.53064e-07 -2.31063e-07 0.107862)
(-3.50983e-05 -3.49732e-05 0.104335)
(1.03601e-07 2.45634e-07 0.113203)
(-2.62938e-07 5.08002e-07 0.10786)
(5.40267e-07 -2.79216e-07 0.107856)
(-3.55327e-05 -3.54352e-05 0.104329)
(-2.25807e-07 -2.44277e-07 0.1132)
(-3.21025e-07 4.88527e-07 0.107856)
(5.78599e-07 -3.41523e-07 0.107852)
(-3.56768e-05 -3.58383e-05 0.104326)
(-6.0441e-07 -6.48282e-07 0.113198)
(-3.08849e-07 4.00483e-07 0.107854)
(6.68913e-07 -3.94022e-07 0.10785)
(-3.57312e-05 -3.5986e-05 0.104325)
(-8.61976e-07 -9.63898e-07 0.113196)
(-2.54445e-07 3.7697e-07 0.107853)
(5.12441e-07 -3.79118e-07 0.10785)
(-3.57885e-05 -3.59451e-05 0.104324)
(-9.64048e-07 -1.17306e-06 0.113194)
(-1.43096e-07 3.78145e-07 0.107853)
(4.08763e-07 -3.44089e-07 0.107849)
(-3.57252e-05 -3.58448e-05 0.104323)
(-1.013e-06 -1.2031e-06 0.113192)
(-1.73231e-07 3.92722e-07 0.107853)
(4.22264e-07 -3.42196e-07 0.107849)
(-3.57018e-05 -3.58401e-05 0.104323)
(-1.12809e-06 -1.17323e-06 0.113191)
(-1.92977e-07 5.3651e-07 0.107853)
(4.55632e-07 -3.87735e-07 0.107848)
(-3.56731e-05 -3.59351e-05 0.104322)
(-1.12987e-06 -1.13133e-06 0.11319)
(-3.0869e-07 6.28733e-07 0.107852)
(5.39901e-07 -4.66706e-07 0.107848)
(-3.5887e-05 -3.60615e-05 0.104321)
(-1.11306e-06 -1.04527e-06 0.113189)
(-4.45067e-07 6.94174e-07 0.107851)
(6.36969e-07 -5.58188e-07 0.107847)
(-3.60662e-05 -3.60899e-05 0.104321)
(-1.08166e-06 -9.3007e-07 0.113189)
(-4.70887e-07 7.57546e-07 0.10785)
(7.47765e-07 -5.89606e-07 0.107846)
(-3.62204e-05 -3.61126e-05 0.104321)
(-1.05515e-06 -8.87625e-07 0.113188)
(-5.07755e-07 8.33806e-07 0.107849)
(8.7136e-07 -6.31567e-07 0.107847)
(-3.62636e-05 -3.59908e-05 0.104321)
(-9.35263e-07 -8.91247e-07 0.113188)
(-5.59749e-07 9.02983e-07 0.107848)
(1.06691e-06 -5.22442e-07 0.107848)
(-3.63079e-05 -3.61414e-05 0.104322)
(-8.11281e-07 -8.60332e-07 0.113188)
(-5.90656e-07 1.00461e-06 0.107847)
(1.12341e-06 -4.96041e-07 0.107848)
(-3.62017e-05 -3.62623e-05 0.104323)
(-7.02043e-07 -8.21958e-07 0.113188)
(-6.66012e-07 9.9709e-07 0.107847)
(1.15379e-06 -5.97001e-07 0.107849)
(-3.61907e-05 -3.63949e-05 0.104323)
(-5.89754e-07 -8.36275e-07 0.113189)
(-7.0516e-07 9.28616e-07 0.107848)
(1.10905e-06 -6.01488e-07 0.107849)
(-3.63185e-05 -3.62613e-05 0.104323)
(-5.31195e-07 -7.67822e-07 0.113189)
(-8.04933e-07 8.49011e-07 0.107848)
(1.05829e-06 -5.1224e-07 0.10785)
(-3.65603e-05 -3.60909e-05 0.104323)
(-5.40391e-07 -6.34327e-07 0.11319)
(-7.83057e-07 1.01597e-06 0.107848)
(1.01577e-06 -4.69924e-07 0.107851)
(-3.6599e-05 -3.60075e-05 0.104323)
(-6.14634e-07 -6.19125e-07 0.113191)
(-7.39857e-07 1.00329e-06 0.107848)
(1.04085e-06 -4.30523e-07 0.107852)
(-3.65544e-05 -3.60163e-05 0.104323)
(-6.19758e-07 -5.92565e-07 0.113193)
(-7.4858e-07 9.41394e-07 0.107849)
(9.77058e-07 -4.07162e-07 0.107853)
(-3.65678e-05 -3.60029e-05 0.104323)
(-6.412e-07 -6.49606e-07 0.113195)
(-6.54871e-07 8.41992e-07 0.107849)
(9.07363e-07 -4.49025e-07 0.107854)
(-3.64253e-05 -3.61668e-05 0.104323)
(-7.39857e-07 -7.95848e-07 0.113197)
(-6.73238e-07 7.22021e-07 0.10785)
(6.9548e-07 -4.56736e-07 0.107855)
(-3.64523e-05 -3.63302e-05 0.104322)
(-9.20879e-07 -9.26801e-07 0.113199)
(-6.56833e-07 4.72243e-07 0.107852)
(4.97591e-07 -5.86003e-07 0.107856)
(-3.64097e-05 -3.62917e-05 0.104322)
(-1.18207e-06 -1.05202e-06 0.113203)
(-6.4289e-07 3.59748e-07 0.107854)
(2.03666e-07 -5.64448e-07 0.107858)
(-3.63661e-05 -3.62185e-05 0.104321)
(-1.45315e-06 -1.34557e-06 0.113207)
(-4.84926e-07 3.50986e-07 0.107856)
(1.52224e-07 -5.04518e-07 0.10786)
(-3.62873e-05 -3.61342e-05 0.10432)
(-1.89162e-06 -1.61648e-06 0.113212)
(-2.62673e-07 5.26848e-07 0.10786)
(1.4786e-07 -3.26793e-07 0.107863)
(-3.5994e-05 -3.60132e-05 0.10432)
(-2.5724e-06 -2.08188e-06 0.113218)
(-3.01519e-08 7.60524e-07 0.107864)
(2.21828e-07 -2.22316e-07 0.107867)
(-3.53019e-05 -3.54468e-05 0.104321)
(-3.66523e-06 -3.12114e-06 0.113225)
(1.03448e-07 1.3746e-06 0.107871)
(9.72008e-07 -1.88102e-07 0.107873)
(-3.33177e-05 -3.3534e-05 0.104327)
(-5.69215e-06 -5.27502e-06 0.113233)
(-2.96774e-07 3.00432e-06 0.107881)
(2.65853e-06 -4.96128e-07 0.107883)
(-2.7952e-05 -2.81777e-05 0.104345)
(-1.43369e-05 -1.38978e-05 0.11324)
(1.73244e-06 4.96825e-06 0.107898)
(4.75911e-06 1.60953e-06 0.1079)
(-1.20999e-05 -1.21499e-05 0.104405)
(-1.71856e-05 -1.66398e-05 0.113391)
(0.0001079 -5.40973e-05 0.10816)
(-5.43966e-05 0.000107757 0.108162)
(3.26962e-05 3.26152e-05 0.10479)
(-3.54895e-05 -3.52655e-05 0.104877)
(-1.26538e-05 2.14724e-05 0.108301)
(1.17744e-05 2.04895e-05 0.108269)
(-1.2103e-05 2.05177e-05 0.108267)
(-4.85242e-05 4.83569e-05 0.10475)
(3.52008e-05 -3.52412e-05 0.104876)
(2.03154e-05 1.19144e-05 0.10827)
(2.03602e-05 -1.20203e-05 0.108266)
(-2.1481e-05 -1.24515e-05 0.108301)
(-2.05786e-05 1.19613e-05 0.10827)
(-2.05123e-05 -1.1844e-05 0.108268)
(-3.53945e-05 3.52672e-05 0.104874)
(-1.24486e-05 -2.1477e-05 0.108302)
(1.17912e-05 -2.056e-05 0.108269)
(-1.19188e-05 -2.04578e-05 0.108269)
(3.5251e-05 3.53614e-05 0.104875)
(4.73186e-05 4.75327e-05 0.104703)
(-3.54198e-05 -3.51033e-05 0.10483)
(1.15652e-05 2.01368e-05 0.10826)
(-1.18997e-05 2.01855e-05 0.108257)
(1.09953e-05 1.91654e-05 0.108229)
(-1.13535e-05 1.92132e-05 0.108227)
(-4.76172e-05 4.75283e-05 0.104701)
(3.51301e-05 -3.50832e-05 0.104828)
(1.99499e-05 1.17234e-05 0.108261)
(2.00136e-05 -1.17964e-05 0.108256)
(1.89085e-05 1.12231e-05 0.10823)
(1.90052e-05 -1.11588e-05 0.108226)
(-2.01729e-05 -1.16262e-05 0.108258)
(-1.92166e-05 1.12883e-05 0.10823)
(-1.91897e-05 -1.09771e-05 0.108228)
(4.73191e-05 -4.75199e-05 0.104701)
(-3.52325e-05 3.52567e-05 0.104827)
(-1.1737e-05 -2.00944e-05 0.108259)
(1.10579e-05 -1.91219e-05 0.108228)
(-1.12166e-05 -1.90228e-05 0.108229)
(3.50816e-05 3.53603e-05 0.104828)
(4.63509e-05 4.66485e-05 0.104659)
(-3.54612e-05 -3.5127e-05 0.104786)
(1.07899e-05 1.87942e-05 0.10822)
(-1.11413e-05 1.88571e-05 0.108217)
(1.0232e-05 1.76957e-05 0.108191)
(-1.05021e-05 1.77749e-05 0.108189)
(-4.66237e-05 4.66273e-05 0.104656)
(3.52128e-05 -3.50884e-05 0.104784)
(1.85236e-05 1.10239e-05 0.108221)
(1.86413e-05 -1.09279e-05 0.108217)
(1.74037e-05 1.04716e-05 0.108193)
(1.75433e-05 -1.02146e-05 0.108189)
(-1.88341e-05 -1.07545e-05 0.108218)
(-1.77189e-05 1.05428e-05 0.108192)
(-1.77366e-05 -1.01095e-05 0.108191)
(4.64538e-05 -4.64891e-05 0.104656)
(-3.51964e-05 3.54477e-05 0.104784)
(-1.10248e-05 -1.86275e-05 0.108219)
(1.03334e-05 -1.75337e-05 0.108191)
(-1.04676e-05 -1.74242e-05 0.108192)
(3.50524e-05 3.55067e-05 0.104785)
(4.53252e-05 4.56203e-05 0.104618)
(-3.55992e-05 -3.54104e-05 0.104747)
(1.00111e-05 1.72722e-05 0.108183)
(-1.02612e-05 1.73619e-05 0.108181)
(9.35877e-06 1.59368e-05 0.108157)
(-9.42225e-06 1.60151e-05 0.108155)
(-4.55542e-05 4.56356e-05 0.104616)
(3.55361e-05 -3.53008e-05 0.104745)
(1.69868e-05 1.02457e-05 0.108185)
(1.71351e-05 -9.93533e-06 0.10818)
(1.57101e-05 9.53256e-06 0.108158)
(1.58472e-05 -9.1197e-06 0.108155)
(-1.73198e-05 -9.86614e-06 0.108182)
(-1.59114e-05 9.56165e-06 0.108158)
(-1.59796e-05 -9.1045e-06 0.108157)
(4.55172e-05 -4.5322e-05 0.104616)
(-3.53724e-05 3.58362e-05 0.104746)
(-1.02412e-05 -1.69751e-05 0.108183)
(9.45364e-06 -1.56611e-05 0.108157)
(-9.50338e-06 -1.55891e-05 0.108158)
(3.53597e-05 3.5806e-05 0.104747)
(4.42386e-05 4.43689e-05 0.104582)
(-3.59022e-05 -3.59986e-05 0.104712)
(9.11714e-06 1.54158e-05 0.10815)
(-9.11479e-06 1.55109e-05 0.108147)
(8.38763e-06 1.37861e-05 0.108125)
(-8.12957e-06 1.39094e-05 0.108124)
(-4.42634e-05 4.44588e-05 0.104579)
(3.61362e-05 -3.58454e-05 0.10471)
(1.52216e-05 9.24083e-06 0.108151)
(1.53678e-05 -8.83157e-06 0.108147)
(1.37395e-05 8.30321e-06 0.108127)
(1.38555e-05 -7.93473e-06 0.108123)
(-1.54661e-05 -8.83979e-06 0.108149)
(-1.37386e-05 8.34079e-06 0.108127)
(-1.3824e-05 -8.00611e-06 0.108125)
(4.43612e-05 -4.3954e-05 0.10458)
(-3.5764e-05 3.639e-05 0.10471)
(-9.22223e-06 -1.50794e-05 0.10815)
(8.40108e-06 -1.34894e-05 0.108126)
(-8.23715e-06 -1.35064e-05 0.108127)
(3.5992e-05 3.62342e-05 0.104712)
(4.29826e-05 4.28085e-05 0.104548)
(-3.63329e-05 -3.68385e-05 0.104679)
(8.12053e-06 1.31882e-05 0.108119)
(-7.74804e-06 1.3334e-05 0.108117)
(7.32661e-06 1.13437e-05 0.108096)
(-6.59767e-06 1.15119e-05 0.108095)
(-4.26972e-05 4.29483e-05 0.104547)
(3.69387e-05 -3.65566e-05 0.104679)
(1.32e-05 7.95925e-06 0.10812)
(1.33145e-05 -7.6097e-06 0.108116)
(1.15788e-05 6.8733e-06 0.108097)
(1.16265e-05 -6.62809e-06 0.108093)
(-1.32329e-05 -7.75282e-06 0.108118)
(-1.13018e-05 6.97691e-06 0.108098)
(-1.13643e-05 -6.91606e-06 0.108096)
(4.303e-05 -4.24657e-05 0.104547)
(-3.63283e-05 3.70852e-05 0.104678)
(-7.8916e-06 -1.29594e-05 0.10812)
(7.26673e-06 -1.11154e-05 0.108097)
(-6.79393e-06 -1.12618e-05 0.108098)
(3.68478e-05 3.66856e-05 0.10468)
(4.16744e-05 4.10886e-05 0.104518)
(-3.69807e-05 -3.78386e-05 0.104649)
(7.05297e-06 1.06898e-05 0.108089)
(-6.23217e-06 1.08863e-05 0.108088)
(6.16709e-06 8.77567e-06 0.108067)
(-5.04699e-06 8.98138e-06 0.108068)
(-4.09977e-05 4.13234e-05 0.104518)
(3.79291e-05 -3.75254e-05 0.104651)
(1.10075e-05 6.50342e-06 0.10809)
(1.1043e-05 -6.30529e-06 0.108086)
(9.32831e-06 5.33278e-06 0.108068)
(9.2843e-06 -5.30781e-06 0.108065)
(-1.06987e-05 -6.62644e-06 0.10809)
(-8.7394e-06 5.5137e-06 0.108071)
(-8.7209e-06 -5.75011e-06 0.108069)
(4.15481e-05 -4.08754e-05 0.104517)
(-3.71589e-05 3.79142e-05 0.104649)
(-6.41515e-06 -1.06797e-05 0.108092)
(5.97814e-06 -8.67858e-06 0.108069)
(-5.19305e-06 -8.93276e-06 0.108071)
(3.79037e-05 3.73456e-05 0.104651)
(4.01459e-05 3.92392e-05 0.104491)
(-3.78869e-05 -3.88061e-05 0.104623)
(5.85562e-06 8.13071e-06 0.108061)
(-4.67341e-06 8.36289e-06 0.108062)
(4.90562e-06 6.34312e-06 0.10804)
(-3.65977e-06 6.53849e-06 0.108042)
(-3.91852e-05 3.95335e-05 0.104492)
(3.88762e-05 -3.85085e-05 0.104626)
(8.74927e-06 4.94621e-06 0.108062)
(8.68636e-06 -4.96034e-06 0.108058)
(7.06924e-06 3.90105e-06 0.108041)
(6.95121e-06 -4.06176e-06 0.108037)
(-8.07033e-06 -5.45798e-06 0.108063)
(-6.2789e-06 4.12895e-06 0.108045)
(-6.21213e-06 -4.54041e-06 0.108043)
(3.99009e-05 -3.92498e-05 0.10449)
(-3.80709e-05 3.86761e-05 0.104622)
(-4.80992e-06 -8.3522e-06 0.108065)
(4.60986e-06 -6.37666e-06 0.108042)
(-3.71358e-06 -6.64269e-06 0.108045)
(3.89287e-05 3.81702e-05 0.104625)
(3.84573e-05 3.75596e-05 0.104466)
(-3.89721e-05 -3.95664e-05 0.104599)
(4.59602e-06 5.76745e-06 0.108034)
(-3.37009e-06 5.94947e-06 0.108036)
(3.5467e-06 4.18937e-06 0.108014)
(-2.61533e-06 4.25764e-06 0.108017)
(-3.74968e-05 3.77823e-05 0.104469)
(3.96516e-05 -3.95112e-05 0.104603)
(6.48499e-06 3.58818e-06 0.108035)
(6.37924e-06 -3.78693e-06 0.108031)
(4.81003e-06 2.74568e-06 0.108014)
(4.68318e-06 -3.03129e-06 0.108011)
(-5.61362e-06 -4.25541e-06 0.108037)
(-4.06834e-06 2.87306e-06 0.10802)
(-3.98611e-06 -3.33195e-06 0.108018)
(3.81887e-05 -3.77286e-05 0.104466)
(-3.91477e-05 3.93514e-05 0.104598)
(-3.39829e-06 -6.07471e-06 0.108038)
(3.27896e-06 -4.32489e-06 0.108016)
(-2.5664e-06 -4.44246e-06 0.108019)
(3.9781e-05 3.91546e-05 0.104601)
(3.67401e-05 3.6215e-05 0.104443)
(-4.00459e-05 -4.01578e-05 0.104576)
(3.18903e-06 3.69057e-06 0.108008)
(-2.38286e-06 3.71258e-06 0.108011)
(2.15793e-06 2.36507e-06 0.107989)
(-1.7509e-06 2.27408e-06 0.107992)
(-3.61222e-05 3.61673e-05 0.104448)
(4.02487e-05 -4.02635e-05 0.104581)
(4.22993e-06 2.47803e-06 0.108008)
(4.10711e-06 -2.75296e-06 0.108004)
(2.622e-06 1.80079e-06 0.107989)
(2.51227e-06 -2.01457e-06 0.107985)
(-3.48071e-06 -3.02065e-06 0.108011)
(-2.23458e-06 1.77887e-06 0.107995)
(-2.14861e-06 -2.16708e-06 0.107992)
(3.65023e-05 -3.64664e-05 0.104444)
(-4.01985e-05 3.99771e-05 0.104576)
(-2.35024e-06 -3.90896e-06 0.108013)
(1.9104e-06 -2.48155e-06 0.10799)
(-1.75092e-06 -2.44269e-06 0.107993)
(4.03537e-05 4.01068e-05 0.104578)
(3.51903e-05 3.51139e-05 0.104422)
(-4.06122e-05 -4.05307e-05 0.104556)
(1.82421e-06 1.96045e-06 0.107983)
(-1.55224e-06 1.8491e-06 0.107986)
(9.72007e-07 9.4671e-07 0.107965)
(-1.06356e-06 7.92686e-07 0.107968)
(-3.50339e-05 3.49563e-05 0.104428)
(4.05892e-05 -4.06889e-05 0.104562)
(2.13254e-06 1.60155e-06 0.107983)
(2.02994e-06 -1.77297e-06 0.107979)
(9.3291e-07 1.09793e-06 0.107965)
(8.34548e-07 -1.15023e-06 0.107962)
(-1.7657e-06 -1.90189e-06 0.107986)
(-8.10491e-07 9.019e-07 0.107972)
(-8.30948e-07 -1.13013e-06 0.107968)
(3.50077e-05 -3.53268e-05 0.104423)
(-4.06673e-05 4.04548e-05 0.104556)
(-1.576e-06 -1.99242e-06 0.107987)
(8.93498e-07 -9.59963e-07 0.107967)
(-1.05898e-06 -8.7505e-07 0.107969)
(4.06202e-05 4.0603e-05 0.104558)
(3.42619e-05 3.43608e-05 0.104403)
(-4.09422e-05 -4.07136e-05 0.104537)
(7.24638e-07 6.19072e-07 0.10796)
(-8.91943e-07 4.75208e-07 0.107963)
(1.91292e-07 -1.37235e-07 0.107943)
(-4.84317e-07 -2.94801e-07 0.107946)
(-3.43267e-05 3.41763e-05 0.104409)
(4.08464e-05 -4.08975e-05 0.104543)
(5.66123e-07 9.50123e-07 0.107959)
(5.03308e-07 -9.53387e-07 0.107956)
(-2.56481e-07 5.43291e-07 0.107942)
(-2.77567e-07 -4.01152e-07 0.10794)
(-5.35837e-07 -8.79759e-07 0.107963)
(3.30535e-07 3.29309e-07 0.10795)
(2.70397e-07 -1.53819e-07 0.107947)
(3.42017e-05 -3.44828e-05 0.104404)
(-4.08639e-05 4.08552e-05 0.104539)
(-8.75328e-07 -5.26007e-07 0.107963)
(2.37508e-07 2.45143e-07 0.107945)
(-3.58839e-07 3.727e-07 0.107946)
(4.08097e-05 4.10227e-05 0.10454)
(3.36794e-05 3.39066e-05 0.104387)
(-4.11271e-05 -4.07868e-05 0.104522)
(4.87604e-08 -3.61751e-07 0.107938)
(-3.7095e-07 -5.18989e-07 0.107941)
(-3.14943e-07 -8.55273e-07 0.107923)
(-1.13506e-07 -9.78467e-07 0.107925)
(-3.3782e-05 3.36871e-05 0.104392)
(4.09955e-05 -4.09232e-05 0.104527)
(-5.1265e-07 4.09971e-07 0.107937)
(-5.01856e-07 -2.60833e-07 0.107935)
(-1.10459e-06 -3.09018e-08 0.107922)
(-1.00687e-06 -1.94648e-08 0.107919)
(5.41068e-07 5.74419e-08 0.107941)
(1.06588e-06 1.10647e-08 0.107929)
(1.03974e-06 3.92839e-07 0.107927)
(3.36944e-05 -3.37695e-05 0.104388)
(-4.09724e-05 4.10053e-05 0.104523)
(-1.88597e-07 6.67868e-07 0.107941)
(-1.03992e-07 1.08206e-06 0.107925)
(1.69038e-07 1.29175e-06 0.107926)
(4.09892e-05 4.1338e-05 0.104525)
(3.32869e-05 3.36286e-05 0.104372)
(-4.11601e-05 -4.07873e-05 0.10451)
(-4.16491e-07 -9.79592e-07 0.107919)
(-2.80054e-08 -1.1006e-06 0.10792)
(-5.71577e-07 -1.08701e-06 0.107905)
(1.04088e-07 -1.15616e-06 0.107905)
(-3.3456e-05 3.34725e-05 0.104376)
(4.09115e-05 -4.07428e-05 0.104511)
(-1.2678e-06 -1.97741e-07 0.107918)
(-1.14347e-06 6.1928e-08 0.107915)
(-1.3825e-06 -3.79424e-07 0.107906)
(-1.24772e-06 1.63137e-07 0.107901)
(1.15456e-06 4.38928e-07 0.107922)
(1.27265e-06 -5.03934e-08 0.10791)
(1.28896e-06 4.20162e-07 0.107908)
(3.34203e-05 -3.34717e-05 0.104373)
(-4.07908e-05 4.08512e-05 0.104508)
(2.45483e-07 1.4155e-06 0.107922)
(-1.83885e-07 1.25247e-06 0.107906)
(3.34651e-07 1.4461e-06 0.107908)
(4.09921e-05 4.11066e-05 0.104512)
(3.32365e-05 3.35869e-05 0.104361)
(-4.05139e-05 -4.03068e-05 0.104498)
(-5.49213e-07 -1.09414e-06 0.107902)
(1.18835e-07 -1.1449e-06 0.107901)
(-3.16764e-07 -8.08878e-07 0.10789)
(3.97182e-08 -7.94514e-07 0.107888)
(-3.34667e-05 3.3623e-05 0.104362)
(4.04311e-05 -4.01501e-05 0.104498)
(-1.37695e-06 -3.5423e-07 0.107902)
(-1.24193e-06 1.65228e-07 0.107896)
(-1.00768e-06 -1.21292e-07 0.107891)
(-8.72669e-07 -1.13679e-08 0.107884)
(1.31145e-06 3.9395e-07 0.107904)
(1.00544e-06 3.99762e-08 0.107893)
(1.07497e-06 2.64672e-07 0.107892)
(3.35238e-05 -3.35377e-05 0.104359)
(-4.02056e-05 4.03483e-05 0.104495)
(3.29023e-07 1.43021e-06 0.107904)
(-5.42327e-08 9.64802e-07 0.107889)
(2.39034e-07 1.12012e-06 0.107892)
(4.05677e-05 4.05625e-05 0.104499)
(3.39069e-05 3.40796e-05 0.10435)
(-3.97216e-05 -3.95774e-05 0.104489)
(-2.32957e-07 -6.91522e-07 0.107887)
(1.57639e-09 -6.91632e-07 0.107884)
(1.36227e-07 -1.44692e-07 0.107877)
(-2.39599e-07 -1.22487e-07 0.107875)
(-3.39287e-05 3.41653e-05 0.104349)
(3.98108e-05 -3.9441e-05 0.104487)
(-8.88994e-07 -4.97746e-08 0.107887)
(-7.57453e-07 -7.30071e-08 0.10788)
(-3.68169e-07 3.38259e-07 0.107878)
(-2.13776e-07 -3.51117e-07 0.107871)
(1.00462e-06 2.03974e-07 0.107888)
(4.93502e-07 3.28571e-07 0.107879)
(5.41565e-07 -2.84884e-08 0.107878)
(3.40719e-05 -3.40146e-05 0.104347)
(-3.96e-05 3.96764e-05 0.104484)
(1.96968e-07 1.05135e-06 0.107888)
(1.34571e-07 3.89208e-07 0.107875)
(-1.97843e-09 5.6314e-07 0.107878)
(3.99672e-05 3.9871e-05 0.104489)
(3.46545e-05 3.48287e-05 0.104341)
(-3.91861e-05 -3.88723e-05 0.104481)
(2.34345e-07 -6.78217e-09 0.107875)
(-3.25738e-07 3.29601e-09 0.107872)
(5.69569e-07 4.38114e-07 0.107867)
(-5.81311e-07 4.40021e-07 0.107864)
(-3.45149e-05 3.48629e-05 0.10434)
(3.92728e-05 -3.89787e-05 0.104479)
(-2.597e-07 4.60997e-07 0.107876)
(-1.23195e-07 -4.36074e-07 0.107868)
(1.47916e-07 7.89989e-07 0.107869)
(2.41923e-07 -7.10045e-07 0.107861)
(4.30826e-07 -8.23421e-08 0.107875)
(3.5273e-08 5.63662e-07 0.107869)
(-2.76299e-08 -4.12416e-07 0.107867)
(3.46277e-05 -3.46464e-05 0.104337)
(-3.9144e-05 3.9004e-05 0.104476)
(-8.90678e-08 4.57376e-07 0.107875)
(4.18095e-07 -1.77543e-07 0.107865)
(-4.29481e-07 9.5315e-09 0.107867)
(3.91878e-05 3.93048e-05 0.104482)
(3.51903e-05 3.54715e-05 0.104334)
(-3.85197e-05 -3.85425e-05 0.104475)
(6.5961e-07 4.64288e-07 0.107866)
(-6.20279e-07 4.39499e-07 0.107862)
(9.42615e-07 5.43448e-07 0.10786)
(-7.13336e-07 5.44822e-07 0.107857)
(-3.50472e-05 3.5218e-05 0.104332)
(3.86143e-05 -3.88155e-05 0.104474)
(2.32391e-07 8.8183e-07 0.107867)
(2.68818e-07 -7.7709e-07 0.107859)
(5.24529e-07 1.06881e-06 0.107861)
(4.29506e-07 -7.8908e-07 0.107855)
(-6.71309e-08 -4.86603e-07 0.107865)
(-2.63572e-07 5.41636e-07 0.107861)
(-3.339e-07 -7.01728e-07 0.107858)
(3.50609e-05 -3.53042e-05 0.10433)
(-3.87526e-05 3.85908e-05 0.104471)
(-5.33428e-07 -5.4574e-08 0.107865)
(5.2161e-07 -3.03147e-07 0.107857)
(-8.13926e-07 -2.72346e-07 0.10786)
(3.87176e-05 3.87976e-05 0.104475)
(3.57995e-05 3.57201e-05 0.104329)
(-3.8213e-05 -3.84159e-05 0.104471)
(9.8629e-07 4.69054e-07 0.107859)
(-7.27522e-07 5.00056e-07 0.107856)
(1.01538e-06 4.25086e-07 0.107855)
(-7.00371e-07 4.34604e-07 0.107854)
(-3.56462e-05 3.53765e-05 0.104328)
(3.83736e-05 -3.85696e-05 0.104472)
(5.13315e-07 1.07013e-06 0.10786)
(4.1587e-07 -8.13723e-07 0.107854)
(5.17709e-07 9.13786e-07 0.107856)
(4.43271e-07 -7.86363e-07 0.107852)
(-3.26419e-07 -7.27945e-07 0.107856)
(-3.40197e-07 4.96766e-07 0.107856)
(-3.94005e-07 -8.23489e-07 0.107852)
(3.54341e-05 -3.56519e-05 0.104326)
(-3.84657e-05 3.83031e-05 0.104469)
(-8.06996e-07 -2.34332e-07 0.107858)
(5.86922e-07 -3.30362e-07 0.107853)
(-7.46504e-07 -3.53949e-07 0.107854)
(3.84695e-05 3.8351e-05 0.104471)
(3.60099e-05 3.57698e-05 0.104325)
(-3.81169e-05 -3.83104e-05 0.104469)
(9.88555e-07 3.74985e-07 0.107854)
(-6.72226e-07 4.07395e-07 0.107853)
(9.45532e-07 3.66999e-07 0.107852)
(-6.75352e-07 3.64181e-07 0.107852)
(-3.58213e-05 3.55861e-05 0.104326)
(3.84188e-05 -3.8509e-05 0.104471)
(5.09638e-07 8.58457e-07 0.107856)
(4.23197e-07 -7.68827e-07 0.107851)
(5.24899e-07 7.12059e-07 0.107853)
(4.1755e-07 -7.38038e-07 0.10785)
(-3.71325e-07 -8.40507e-07 0.107851)
(-3.41029e-07 4.08045e-07 0.107854)
(-3.93989e-07 -8.51873e-07 0.107849)
(3.56731e-05 -3.59343e-05 0.104324)
(-3.8362e-05 3.82204e-05 0.104468)
(-7.07721e-07 -3.547e-07 0.107854)
(6.40311e-07 -4.06411e-07 0.107851)
(-7.14182e-07 -4.14881e-07 0.107851)
(3.84349e-05 3.8165e-05 0.10447)
(3.60569e-05 3.5856e-05 0.104324)
(-3.81246e-05 -3.83594e-05 0.104469)
(9.62008e-07 3.49483e-07 0.107852)
(-6.79737e-07 3.05092e-07 0.107852)
(8.81067e-07 3.19161e-07 0.10785)
(-6.531e-07 2.30389e-07 0.107851)
(-3.58145e-05 3.56565e-05 0.104325)
(3.84242e-05 -3.85978e-05 0.104471)
(4.91338e-07 6.94453e-07 0.107853)
(3.69627e-07 -7.70645e-07 0.10785)
(3.9297e-07 6.31789e-07 0.107852)
(2.85415e-07 -8.14098e-07 0.10785)
(-3.77299e-07 -8.89985e-07 0.107848)
(-2.99069e-07 3.72459e-07 0.107853)
(-2.6959e-07 -8.79858e-07 0.107848)
(3.57667e-05 -3.59689e-05 0.104323)
(-3.83571e-05 3.81937e-05 0.104468)
(-7.40748e-07 -4.01287e-07 0.107851)
(5.42766e-07 -3.90746e-07 0.107849)
(-6.7399e-07 -3.55418e-07 0.107849)
(3.83516e-05 3.81758e-05 0.104469)
(3.60427e-05 3.5798e-05 0.104323)
(-3.83124e-05 -3.85796e-05 0.104469)
(8.16162e-07 2.80214e-07 0.107851)
(-6.51989e-07 1.96283e-07 0.107851)
(6.66456e-07 2.17046e-07 0.10785)
(-6.50224e-07 1.86232e-07 0.107851)
(-3.57412e-05 3.5534e-05 0.104326)
(3.83393e-05 -3.85219e-05 0.104472)
(3.55374e-07 6.17702e-07 0.107852)
(2.18817e-07 -8.05259e-07 0.10785)
(2.85922e-07 5.21048e-07 0.107851)
(1.35968e-07 -8.19165e-07 0.107849)
(-1.85333e-07 -8.82727e-07 0.107847)
(-1.79412e-07 4.01999e-07 0.107853)
(-8.64078e-08 -8.77149e-07 0.107846)
(3.57337e-05 -3.60188e-05 0.104323)
(-3.84172e-05 3.81886e-05 0.104469)
(-6.325e-07 -3.09928e-07 0.107849)
(4.3384e-07 -3.5833e-07 0.107849)
(-5.95809e-07 -3.19844e-07 0.107848)
(3.83957e-05 3.82354e-05 0.104468)
(3.58103e-05 3.55373e-05 0.104323)
(-3.84668e-05 -3.86233e-05 0.104469)
(6.81724e-07 1.47551e-07 0.10785)
(-6.47838e-07 1.4026e-07 0.107851)
(6.53994e-07 1.37786e-07 0.10785)
(-6.02621e-07 1.15578e-07 0.107851)