/*--------------------------------*- C++ -*----------------------------------*\
| =========                 |                                                 |
| \\      /  F ield         | OpenFOAM: The Open Source CFD Toolbox           |
|  \\    /   O peration     | Version:  v2012                                 |
|   \\  /    A nd           | Website:  www.openfoam.com                      |
|    \\/     M anipulation  |                                                 |
\*---------------------------------------------------------------------------*/
FoamFile
{
    version     2.0;
    format      ascii;
    class       volScalarField;
    location    "37.5";
    object      p;
}
// * * * * * * * * * * * * * * * * * * * * * * * * * * * * * * * * * * * * * //

dimensions      [0 2 -2 0 0 0 0];


internalField   nonuniform List<scalar> 
171728
(
0.00392577
0.00392584
0.00392611
0.00392815
0.0038871
0.00388698
0.00388714
0.00389018
0.00384987
0.00384945
0.00384969
0.003852
0.00380355
0.00380343
0.00380327
0.00380601
0.00375469
0.00375462
0.00375441
0.00375711
0.0037045
0.00370448
0.00370445
0.00370698
0.00365477
0.00365499
0.003655
0.00365783
0.00360455
0.00360431
0.00360431
0.00360729
0.00355642
0.00355604
0.00355604
0.00355872
0.00351286
0.00351269
0.00351268
0.00351522
0.00347114
0.00347108
0.00347108
0.00347353
0.00342978
0.00342973
0.00342973
0.00343218
0.00338844
0.0033884
0.0033884
0.00339085
0.00334711
0.00334707
0.00334707
0.00334952
0.00330578
0.00330574
0.00330574
0.00330818
0.00326444
0.0032644
0.0032644
0.00326685
0.00322311
0.00322307
0.00322307
0.00322551
0.00318177
0.00318173
0.00318173
0.00318418
0.00314044
0.0031404
0.0031404
0.00314285
0.00309911
0.00309907
0.00309907
0.00310152
0.00305778
0.00305774
0.00305774
0.00306019
0.00301646
0.00301642
0.00301642
0.00301886
0.00297513
0.00297509
0.00297509
0.00297754
0.00293381
0.00293377
0.00293377
0.00293622
0.00289249
0.00289245
0.00289245
0.0028949
0.00285117
0.00285113
0.00285113
0.00285358
0.00280985
0.00280981
0.00280981
0.00281226
0.00276853
0.0027685
0.0027685
0.00277094
0.00272721
0.00272718
0.00272718
0.00272962
0.0026859
0.00268586
0.00268586
0.0026883
0.00264458
0.00264454
0.00264454
0.00264699
0.00260326
0.00260322
0.00260322
0.00260567
0.00256194
0.0025619
0.0025619
0.00256435
0.00252062
0.00252059
0.00252059
0.00252303
0.00247931
0.00247927
0.00247927
0.00248171
0.00243799
0.00243795
0.00243795
0.00244039
0.00239667
0.00239663
0.00239663
0.00239908
0.00235535
0.00235531
0.00235531
0.00235776
0.00231403
0.00231399
0.00231399
0.00231644
0.00227271
0.00227267
0.00227267
0.00227512
0.00223139
0.00223135
0.00223135
0.0022338
0.00219007
0.00219003
0.00219003
0.00219248
0.00214875
0.00214871
0.00214871
0.00215116
0.00210743
0.00210739
0.00210739
0.00210984
0.00206611
0.00206608
0.00206608
0.00206852
0.0020248
0.00202476
0.00202476
0.0020272
0.00198348
0.00198344
0.00198344
0.00198588
0.00194216
0.00194212
0.00194212
0.00194456
0.00190084
0.0019008
0.0019008
0.00190324
0.00185952
0.00185948
0.00185948
0.00186193
0.0018182
0.00181816
0.00181816
0.00182061
0.00177688
0.00177684
0.00177684
0.00177929
0.00173556
0.00173552
0.00173552
0.00173797
0.00169424
0.00169421
0.00169421
0.00169665
0.00165293
0.00165289
0.00165289
0.00165533
0.00161161
0.00161157
0.00161157
0.00161401
0.00157029
0.00157025
0.00157025
0.0015727
0.00152897
0.00152893
0.00152893
0.00153138
0.00148765
0.00148762
0.00148762
0.00149006
0.00144634
0.0014463
0.0014463
0.00144874
0.00140502
0.00140498
0.00140498
0.00140742
0.0013637
0.00136366
0.00136366
0.0013661
0.00132238
0.00132234
0.00132234
0.00132479
0.00128106
0.00128102
0.00128102
0.00128347
0.00123974
0.00123971
0.00123971
0.00124215
0.00119843
0.00119839
0.00119839
0.00120083
0.00115711
0.00115707
0.00115707
0.00115951
0.00111579
0.00111575
0.00111575
0.0011182
0.00107447
0.00107443
0.00107443
0.00107688
0.00103315
0.00103311
0.00103311
0.00103556
0.000991834
0.000991796
0.000991797
0.000994241
0.000950515
0.000950477
0.000950477
0.000952922
0.000909196
0.000909158
0.000909158
0.000911602
0.000867876
0.000867838
0.000867838
0.000870283
0.000826557
0.000826519
0.000826519
0.000828963
0.000785237
0.000785199
0.000785199
0.000787644
0.000743918
0.00074388
0.00074388
0.000746324
0.000702599
0.00070256
0.00070256
0.000705005
0.00066128
0.000661242
0.000661242
0.000663687
0.000619962
0.000619924
0.000619924
0.000622368
0.000578643
0.000578605
0.000578605
0.00058105
0.000537325
0.000537287
0.000537287
0.000539732
0.000496006
0.000495967
0.000495967
0.000498412
0.000454687
0.000454649
0.000454649
0.000457093
0.000413368
0.00041333
0.00041333
0.000415775
0.00037205
0.000372012
0.000372012
0.000374456
0.000330732
0.000330693
0.000330693
0.000333137
0.000289414
0.000289368
0.000289368
0.000291808
0.00024809
0.000248053
0.000248053
0.000250492
0.000206773
0.000206739
0.000206739
0.000209174
0.000165446
0.000165409
0.000165408
0.000167833
0.000124111
0.000124083
0.000124083
0.00012649
8.27834e-05
8.27408e-05
8.27395e-05
8.51142e-05
4.22445e-05
4.16728e-05
4.16697e-05
4.38737e-05
8.05048e-06
8.13898e-06
8.13737e-06
8.00536e-06
0.0039347
0.00393452
0.00393451
0.00393465
0.00393458
0.0039347
0.0039357
0.00393568
0.00393583
0.00393597
0.00393448
0.00393471
0.00393489
0.00393471
0.00393477
0.00393487
0.00392824
0.00389382
0.00392593
0.00392593
0.003895
0.00389497
0.00392819
0.00389375
0.00392606
0.00392609
0.00389497
0.00389512
0.00392572
0.00389485
0.00389483
0.00392843
0.0038939
0.00392596
0.0038952
0.00389494
0.00389371
0.00389027
0.00385743
0.00388701
0.00388708
0.00386042
0.00386048
0.00389022
0.00385738
0.00388724
0.00388723
0.0038604
0.00386049
0.00388687
0.0038605
0.00386034
0.00389032
0.00385738
0.00388719
0.00386047
0.00386053
0.0038574
0.00385201
0.00381213
0.00384952
0.00384951
0.00381529
0.00381528
0.003852
0.00381215
0.00384967
0.00384966
0.0038153
0.00381535
0.00384952
0.00381533
0.0038153
0.00385198
0.00381209
0.00384949
0.00381543
0.00381535
0.00381213
0.003806
0.00376348
0.00380345
0.00380338
0.00376694
0.00376693
0.00380603
0.00376352
0.00380358
0.00380348
0.00376695
0.00376691
0.0038035
0.00376699
0.00376697
0.00380597
0.00376347
0.00380345
0.00376689
0.00376698
0.00376349
0.00375709
0.00371346
0.00375457
0.00375456
0.00371697
0.00371699
0.00375715
0.00371349
0.00375464
0.00375457
0.00371696
0.00371695
0.00375461
0.00371698
0.00371699
0.00375709
0.0037135
0.00375461
0.00371695
0.00371698
0.00371347
0.00370698
0.00366425
0.00370447
0.00370448
0.00366731
0.0036673
0.003707
0.00366424
0.00370445
0.00370446
0.0036673
0.00366731
0.00370448
0.0036673
0.0036673
0.00370701
0.00366426
0.00370447
0.0036673
0.0036673
0.00366424
0.00365784
0.00361401
0.003655
0.00365499
0.00361693
0.00361693
0.00365783
0.00361401
0.00365499
0.003655
0.00361694
0.00361694
0.00365499
0.00361693
0.00361693
0.00365785
0.00361402
0.00365499
0.00361694
0.00361693
0.00361401
0.0036073
0.0035648
0.00360431
0.00360431
0.0035676
0.0035676
0.00360729
0.0035648
0.00360431
0.00360431
0.0035676
0.0035676
0.00360431
0.0035676
0.0035676
0.0036073
0.0035648
0.00360431
0.0035676
0.0035676
0.0035648
0.00355872
0.00352075
0.00355604
0.00355604
0.00352325
0.00352325
0.00355872
0.00352075
0.00355604
0.00355604
0.00352325
0.00352325
0.00355604
0.00352325
0.00352324
0.00355872
0.00352075
0.00355604
0.00352325
0.00352324
0.00352075
0.00351522
0.00347898
0.00351269
0.00351269
0.00348143
0.00348143
0.00351522
0.00347898
0.00351269
0.00351269
0.00348143
0.00348143
0.00351268
0.00348143
0.00348143
0.00351522
0.00347898
0.00351268
0.00348143
0.00348143
0.00347898
0.00347353
0.00343762
0.00347108
0.00347108
0.00344007
0.00344007
0.00347353
0.00343762
0.00347108
0.00347108
0.00344007
0.00344007
0.00347108
0.00344007
0.00344007
0.00347353
0.00343762
0.00347108
0.00344007
0.00344007
0.00343762
0.00343218
0.00339629
0.00342973
0.00342973
0.00339874
0.00339874
0.00343218
0.00339629
0.00342973
0.00342973
0.00339874
0.00339874
0.00342973
0.00339874
0.00339874
0.00343218
0.00339629
0.00342973
0.00339874
0.00339874
0.00339629
0.00339085
0.00335496
0.0033884
0.0033884
0.0033574
0.00335741
0.00339085
0.00335496
0.0033884
0.0033884
0.0033574
0.0033574
0.0033884
0.0033574
0.00335741
0.00339085
0.00335496
0.0033884
0.0033574
0.0033574
0.00335496
0.00334952
0.00331362
0.00334707
0.00334707
0.00331607
0.00331607
0.00334952
0.00331363
0.00334707
0.00334707
0.00331607
0.00331607
0.00334707
0.00331607
0.00331607
0.00334952
0.00331362
0.00334707
0.00331607
0.00331607
0.00331362
0.00330818
0.00327229
0.00330574
0.00330574
0.00327474
0.00327474
0.00330818
0.00327229
0.00330574
0.00330574
0.00327474
0.00327474
0.00330574
0.00327474
0.00327474
0.00330818
0.00327229
0.00330574
0.00327474
0.00327474
0.00327229
0.00326685
0.00323096
0.0032644
0.0032644
0.0032334
0.0032334
0.00326685
0.00323096
0.0032644
0.0032644
0.0032334
0.0032334
0.0032644
0.0032334
0.0032334
0.00326685
0.00323096
0.0032644
0.0032334
0.0032334
0.00323095
0.00322551
0.00318962
0.00322307
0.00322307
0.00319207
0.00319207
0.00322551
0.00318962
0.00322307
0.00322307
0.00319207
0.00319207
0.00322307
0.00319207
0.00319207
0.00322551
0.00318962
0.00322307
0.00319207
0.00319207
0.00318962
0.00318418
0.00314829
0.00318174
0.00318174
0.00315074
0.00315074
0.00318418
0.00314829
0.00318173
0.00318173
0.00315074
0.00315074
0.00318173
0.00315074
0.00315073
0.00318418
0.00314829
0.00318173
0.00315073
0.00315073
0.00314829
0.00314285
0.00310696
0.0031404
0.0031404
0.0031094
0.0031094
0.00314285
0.00310695
0.0031404
0.0031404
0.0031094
0.0031094
0.0031404
0.0031094
0.0031094
0.00314285
0.00310696
0.0031404
0.0031094
0.0031094
0.00310696
0.00310152
0.00306563
0.00309907
0.00309907
0.00306807
0.00306808
0.00310151
0.00306563
0.00309907
0.00309907
0.00306807
0.00306807
0.00309907
0.00306808
0.00306807
0.00310152
0.00306563
0.00309907
0.00306807
0.00306807
0.00306563
0.00306019
0.0030243
0.00305774
0.00305774
0.00302675
0.00302675
0.00306019
0.0030243
0.00305774
0.00305774
0.00302675
0.00302675
0.00305774
0.00302675
0.00302675
0.00306019
0.0030243
0.00305774
0.00302675
0.00302675
0.0030243
0.00301886
0.00298298
0.00301642
0.00301642
0.00298542
0.00298542
0.00301886
0.00298298
0.00301642
0.00301642
0.00298542
0.00298542
0.00301642
0.00298542
0.00298542
0.00301886
0.00298298
0.00301642
0.00298542
0.00298542
0.00298298
0.00297754
0.00294166
0.00297509
0.00297509
0.0029441
0.0029441
0.00297754
0.00294166
0.00297509
0.00297509
0.0029441
0.0029441
0.00297509
0.0029441
0.0029441
0.00297754
0.00294166
0.00297509
0.0029441
0.0029441
0.00294166
0.00293622
0.00290034
0.00293377
0.00293377
0.00290278
0.00290278
0.00293622
0.00290034
0.00293377
0.00293377
0.00290278
0.00290278
0.00293377
0.00290278
0.00290278
0.00293622
0.00290034
0.00293377
0.00290278
0.00290278
0.00290034
0.0028949
0.00285902
0.00289245
0.00289245
0.00286146
0.00286146
0.0028949
0.00285902
0.00289245
0.00289245
0.00286146
0.00286146
0.00289245
0.00286146
0.00286146
0.0028949
0.00285902
0.00289245
0.00286146
0.00286146
0.00285902
0.00285358
0.0028177
0.00285113
0.00285113
0.00282014
0.00282014
0.00285358
0.0028177
0.00285113
0.00285113
0.00282014
0.00282014
0.00285113
0.00282014
0.00282014
0.00285358
0.0028177
0.00285113
0.00282014
0.00282014
0.0028177
0.00281226
0.00277638
0.00280981
0.00280981
0.00277882
0.00277882
0.00281226
0.00277638
0.00280981
0.00280981
0.00277882
0.00277882
0.00280981
0.00277882
0.00277883
0.00281226
0.00277638
0.00280981
0.00277882
0.00277883
0.00277638
0.00277094
0.00273506
0.0027685
0.0027685
0.00273751
0.00273751
0.00277094
0.00273506
0.00276849
0.0027685
0.00273751
0.00273751
0.0027685
0.00273751
0.00273751
0.00277094
0.00273506
0.0027685
0.00273751
0.00273751
0.00273506
0.00272962
0.00269374
0.00272718
0.00272718
0.00269619
0.00269619
0.00272962
0.00269374
0.00272718
0.00272718
0.00269619
0.00269619
0.00272718
0.00269619
0.00269619
0.00272962
0.00269374
0.00272718
0.00269619
0.00269619
0.00269374
0.0026883
0.00265242
0.00268586
0.00268586
0.00265487
0.00265487
0.0026883
0.00265242
0.00268586
0.00268586
0.00265487
0.00265487
0.00268586
0.00265487
0.00265487
0.0026883
0.00265242
0.00268586
0.00265487
0.00265487
0.00265242
0.00264699
0.00261111
0.00264454
0.00264454
0.00261355
0.00261355
0.00264699
0.00261111
0.00264454
0.00264454
0.00261355
0.00261355
0.00264454
0.00261355
0.00261355
0.00264699
0.00261111
0.00264454
0.00261355
0.00261355
0.00261111
0.00260567
0.00256979
0.00260322
0.00260322
0.00257223
0.00257223
0.00260567
0.00256979
0.00260322
0.00260322
0.00257223
0.00257223
0.00260322
0.00257223
0.00257223
0.00260567
0.00256979
0.00260322
0.00257223
0.00257223
0.00256979
0.00256435
0.00252847
0.0025619
0.0025619
0.00253092
0.00253092
0.00256435
0.00252847
0.0025619
0.0025619
0.00253092
0.00253092
0.0025619
0.00253092
0.00253092
0.00256435
0.00252847
0.0025619
0.00253092
0.00253092
0.00252847
0.00252303
0.00248715
0.00252059
0.00252059
0.0024896
0.0024896
0.00252303
0.00248715
0.00252059
0.00252059
0.0024896
0.0024896
0.00252059
0.0024896
0.0024896
0.00252303
0.00248715
0.00252059
0.0024896
0.0024896
0.00248715
0.00248171
0.00244583
0.00247927
0.00247927
0.00244828
0.00244828
0.00248171
0.00244583
0.00247927
0.00247927
0.00244828
0.00244828
0.00247927
0.00244828
0.00244828
0.00248171
0.00244583
0.00247927
0.00244828
0.00244828
0.00244583
0.00244039
0.00240451
0.00243795
0.00243795
0.00240696
0.00240696
0.00244039
0.00240451
0.00243795
0.00243795
0.00240696
0.00240696
0.00243795
0.00240696
0.00240696
0.00244039
0.00240451
0.00243795
0.00240696
0.00240696
0.00240451
0.00239907
0.0023632
0.00239663
0.00239663
0.00236564
0.00236564
0.00239908
0.0023632
0.00239663
0.00239663
0.00236564
0.00236564
0.00239663
0.00236564
0.00236564
0.00239908
0.0023632
0.00239663
0.00236564
0.00236564
0.0023632
0.00235776
0.00232188
0.00235531
0.00235531
0.00232432
0.00232432
0.00235776
0.00232188
0.00235531
0.00235531
0.00232432
0.00232432
0.00235531
0.00232432
0.00232432
0.00235776
0.00232188
0.00235531
0.00232432
0.00232432
0.00232188
0.00231644
0.00228056
0.00231399
0.00231399
0.002283
0.002283
0.00231644
0.00228056
0.00231399
0.00231399
0.002283
0.002283
0.00231399
0.002283
0.002283
0.00231644
0.00228056
0.00231399
0.002283
0.002283
0.00228056
0.00227512
0.00223924
0.00227267
0.00227267
0.00224168
0.00224168
0.00227512
0.00223924
0.00227267
0.00227267
0.00224168
0.00224168
0.00227267
0.00224168
0.00224168
0.00227512
0.00223924
0.00227267
0.00224168
0.00224168
0.00223924
0.0022338
0.00219792
0.00223135
0.00223135
0.00220036
0.00220036
0.0022338
0.00219792
0.00223135
0.00223135
0.00220036
0.00220036
0.00223135
0.00220036
0.00220036
0.0022338
0.00219792
0.00223135
0.00220036
0.00220036
0.00219792
0.00219248
0.0021566
0.00219003
0.00219003
0.00215904
0.00215904
0.00219248
0.0021566
0.00219003
0.00219003
0.00215904
0.00215904
0.00219003
0.00215904
0.00215904
0.00219248
0.0021566
0.00219003
0.00215904
0.00215904
0.0021566
0.00215116
0.00211528
0.00214871
0.00214871
0.00211772
0.00211772
0.00215116
0.00211528
0.00214871
0.00214871
0.00211772
0.00211772
0.00214871
0.00211772
0.00211772
0.00215116
0.00211528
0.00214871
0.00211772
0.00211772
0.00211528
0.00210984
0.00207396
0.00210739
0.00210739
0.00207641
0.00207641
0.00210984
0.00207396
0.00210739
0.00210739
0.00207641
0.00207641
0.00210739
0.00207641
0.00207641
0.00210984
0.00207396
0.00210739
0.00207641
0.00207641
0.00207396
0.00206852
0.00203264
0.00206608
0.00206608
0.00203509
0.00203509
0.00206852
0.00203264
0.00206608
0.00206608
0.00203509
0.00203509
0.00206608
0.00203509
0.00203509
0.00206852
0.00203264
0.00206608
0.00203509
0.00203509
0.00203264
0.0020272
0.00199132
0.00202476
0.00202476
0.00199377
0.00199377
0.0020272
0.00199132
0.00202476
0.00202476
0.00199377
0.00199377
0.00202476
0.00199377
0.00199377
0.0020272
0.00199132
0.00202476
0.00199377
0.00199377
0.00199132
0.00198588
0.00195
0.00198344
0.00198344
0.00195245
0.00195245
0.00198588
0.00195
0.00198344
0.00198344
0.00195245
0.00195245
0.00198344
0.00195245
0.00195245
0.00198588
0.00195
0.00198344
0.00195245
0.00195245
0.00195
0.00194456
0.00190868
0.00194212
0.00194212
0.00191113
0.00191113
0.00194456
0.00190868
0.00194212
0.00194212
0.00191113
0.00191113
0.00194212
0.00191113
0.00191113
0.00194456
0.00190868
0.00194212
0.00191113
0.00191113
0.00190868
0.00190324
0.00186736
0.0019008
0.0019008
0.00186981
0.00186981
0.00190324
0.00186736
0.0019008
0.0019008
0.00186981
0.00186981
0.0019008
0.00186981
0.00186981
0.00190324
0.00186736
0.0019008
0.00186981
0.00186981
0.00186736
0.00186193
0.00182604
0.00185948
0.00185948
0.00182849
0.00182849
0.00186193
0.00182605
0.00185948
0.00185948
0.00182849
0.00182849
0.00185948
0.00182849
0.00182849
0.00186193
0.00182604
0.00185948
0.00182849
0.00182849
0.00182605
0.00182061
0.00178473
0.00181816
0.00181816
0.00178717
0.00178717
0.00182061
0.00178473
0.00181816
0.00181816
0.00178717
0.00178717
0.00181816
0.00178717
0.00178717
0.00182061
0.00178473
0.00181816
0.00178717
0.00178717
0.00178473
0.00177929
0.00174341
0.00177684
0.00177684
0.00174585
0.00174585
0.00177929
0.00174341
0.00177684
0.00177684
0.00174585
0.00174585
0.00177684
0.00174585
0.00174585
0.00177929
0.00174341
0.00177684
0.00174585
0.00174585
0.00174341
0.00173797
0.00170209
0.00173552
0.00173552
0.00170454
0.00170453
0.00173797
0.00170209
0.00173552
0.00173552
0.00170454
0.00170454
0.00173552
0.00170453
0.00170454
0.00173797
0.00170209
0.00173552
0.00170454
0.00170454
0.00170209
0.00169665
0.00166077
0.00169421
0.00169421
0.00166322
0.00166322
0.00169665
0.00166077
0.00169421
0.00169421
0.00166322
0.00166322
0.00169421
0.00166322
0.00166322
0.00169665
0.00166077
0.00169421
0.00166322
0.00166322
0.00166077
0.00165533
0.00161945
0.00165289
0.00165289
0.0016219
0.0016219
0.00165533
0.00161945
0.00165289
0.00165289
0.0016219
0.0016219
0.00165289
0.0016219
0.0016219
0.00165533
0.00161945
0.00165289
0.0016219
0.0016219
0.00161945
0.00161401
0.00157813
0.00161157
0.00161157
0.00158058
0.00158058
0.00161401
0.00157813
0.00161157
0.00161157
0.00158058
0.00158058
0.00161157
0.00158058
0.00158058
0.00161401
0.00157813
0.00161157
0.00158058
0.00158058
0.00157813
0.0015727
0.00153682
0.00157025
0.00157025
0.00153926
0.00153926
0.0015727
0.00153682
0.00157025
0.00157025
0.00153926
0.00153926
0.00157025
0.00153926
0.00153926
0.0015727
0.00153682
0.00157025
0.00153926
0.00153926
0.00153682
0.00153138
0.0014955
0.00152893
0.00152893
0.00149794
0.00149794
0.00153138
0.0014955
0.00152893
0.00152893
0.00149794
0.00149794
0.00152893
0.00149794
0.00149794
0.00153138
0.0014955
0.00152893
0.00149794
0.00149794
0.0014955
0.00149006
0.00145418
0.00148762
0.00148762
0.00145663
0.00145663
0.00149006
0.00145418
0.00148762
0.00148762
0.00145663
0.00145663
0.00148762
0.00145663
0.00145663
0.00149006
0.00145418
0.00148762
0.00145663
0.00145663
0.00145418
0.00144874
0.00141286
0.0014463
0.0014463
0.00141531
0.00141531
0.00144874
0.00141286
0.0014463
0.0014463
0.00141531
0.00141531
0.0014463
0.00141531
0.00141531
0.00144874
0.00141286
0.0014463
0.00141531
0.00141531
0.00141286
0.00140742
0.00137154
0.00140498
0.00140498
0.00137399
0.00137399
0.00140742
0.00137154
0.00140498
0.00140498
0.00137399
0.00137399
0.00140498
0.00137399
0.00137399
0.00140742
0.00137154
0.00140498
0.00137399
0.00137399
0.00137154
0.00136611
0.00133023
0.00136366
0.00136366
0.00133267
0.00133267
0.0013661
0.00133023
0.00136366
0.00136366
0.00133267
0.00133267
0.00136366
0.00133267
0.00133267
0.0013661
0.00133023
0.00136366
0.00133267
0.00133267
0.00133023
0.00132479
0.00128891
0.00132234
0.00132234
0.00129135
0.00129135
0.00132479
0.00128891
0.00132234
0.00132234
0.00129135
0.00129135
0.00132234
0.00129135
0.00129135
0.00132479
0.00128891
0.00132234
0.00129135
0.00129135
0.00128891
0.00128347
0.00124759
0.00128102
0.00128102
0.00125004
0.00125003
0.00128347
0.00124759
0.00128102
0.00128102
0.00125003
0.00125003
0.00128102
0.00125003
0.00125004
0.00128347
0.00124759
0.00128102
0.00125003
0.00125003
0.00124759
0.00124215
0.00120627
0.00123971
0.00123971
0.00120872
0.00120872
0.00124215
0.00120627
0.00123971
0.00123971
0.00120872
0.00120872
0.00123971
0.00120872
0.00120872
0.00124215
0.00120627
0.00123971
0.00120872
0.00120872
0.00120627
0.00120083
0.00116495
0.00119839
0.00119839
0.0011674
0.0011674
0.00120083
0.00116495
0.00119839
0.00119839
0.0011674
0.0011674
0.00119839
0.0011674
0.0011674
0.00120083
0.00116495
0.00119839
0.0011674
0.0011674
0.00116495
0.00115951
0.00112364
0.00115707
0.00115707
0.00112608
0.00112608
0.00115951
0.00112364
0.00115707
0.00115707
0.00112608
0.00112608
0.00115707
0.00112608
0.00112608
0.00115951
0.00112364
0.00115707
0.00112608
0.00112608
0.00112363
0.0011182
0.00108232
0.00111575
0.00111575
0.00108476
0.00108476
0.0011182
0.00108232
0.00111575
0.00111575
0.00108476
0.00108476
0.00111575
0.00108476
0.00108476
0.0011182
0.00108232
0.00111575
0.00108476
0.00108476
0.00108232
0.00107688
0.001041
0.00107443
0.00107443
0.00104344
0.00104344
0.00107688
0.001041
0.00107443
0.00107443
0.00104344
0.00104344
0.00107443
0.00104344
0.00104344
0.00107688
0.001041
0.00107443
0.00104344
0.00104344
0.001041
0.00103556
0.00099968
0.00103312
0.00103311
0.00100213
0.00100213
0.00103556
0.00099968
0.00103311
0.00103311
0.00100213
0.00100213
0.00103311
0.00100213
0.00100213
0.00103556
0.00099968
0.00103311
0.00100213
0.00100213
0.00099968
0.000994241
0.00095836
0.000991796
0.000991796
0.000960807
0.000960807
0.000994241
0.00095836
0.000991796
0.000991796
0.000960806
0.000960807
0.000991797
0.000960807
0.000960807
0.000994241
0.00095836
0.000991797
0.000960807
0.000960807
0.00095836
0.000952921
0.000917041
0.000950477
0.000950477
0.000919487
0.000919487
0.000952921
0.000917041
0.000950477
0.000950477
0.000919487
0.000919487
0.000950477
0.000919487
0.000919488
0.000952921
0.000917041
0.000950477
0.000919487
0.000919487
0.000917041
0.000911602
0.000875722
0.000909158
0.000909158
0.000878168
0.000878168
0.000911602
0.000875722
0.000909157
0.000909158
0.000878168
0.000878168
0.000909158
0.000878168
0.000878168
0.000911602
0.000875722
0.000909158
0.000878168
0.000878168
0.000875722
0.000870283
0.000834402
0.000867838
0.000867838
0.000836849
0.000836849
0.000870283
0.000834402
0.000867838
0.000867838
0.000836848
0.000836849
0.000867838
0.000836849
0.000836849
0.000870283
0.000834402
0.000867838
0.000836849
0.000836849
0.000834402
0.000828963
0.000793083
0.000826519
0.000826519
0.000795529
0.000795529
0.000828963
0.000793083
0.000826519
0.000826519
0.000795529
0.000795529
0.000826519
0.000795529
0.000795529
0.000828963
0.000793082
0.000826519
0.000795529
0.000795529
0.000793082
0.000787644
0.000751763
0.000785199
0.000785199
0.00075421
0.000754209
0.000787644
0.000751763
0.000785199
0.000785199
0.000754209
0.000754209
0.000785199
0.000754209
0.00075421
0.000787644
0.000751763
0.000785199
0.000754209
0.000754209
0.000751763
0.000746324
0.000710444
0.00074388
0.00074388
0.00071289
0.00071289
0.000746324
0.000710444
0.00074388
0.00074388
0.00071289
0.00071289
0.00074388
0.00071289
0.00071289
0.000746324
0.000710444
0.00074388
0.00071289
0.00071289
0.000710444
0.000705005
0.000669125
0.000702561
0.00070256
0.000671572
0.000671572
0.000705005
0.000669125
0.00070256
0.000702561
0.000671571
0.000671572
0.000702561
0.000671572
0.000671572
0.000705005
0.000669125
0.00070256
0.000671572
0.000671572
0.000669125
0.000663687
0.000627807
0.000661242
0.000661242
0.000630253
0.000630253
0.000663687
0.000627807
0.000661242
0.000661242
0.000630253
0.000630253
0.000661242
0.000630253
0.000630253
0.000663687
0.000627807
0.000661242
0.000630253
0.000630253
0.000627807
0.000622368
0.000586488
0.000619924
0.000619923
0.000588935
0.000588935
0.000622368
0.000586489
0.000619923
0.000619924
0.000588935
0.000588935
0.000619924
0.000588935
0.000588935
0.000622368
0.000586488
0.000619923
0.000588935
0.000588935
0.000586488
0.00058105
0.00054517
0.000578605
0.000578605
0.000547617
0.000547617
0.00058105
0.00054517
0.000578605
0.000578605
0.000547616
0.000547617
0.000578605
0.000547617
0.000547617
0.00058105
0.00054517
0.000578605
0.000547617
0.000547617
0.00054517
0.000539732
0.000503851
0.000537287
0.000537287
0.000506297
0.000506297
0.000539731
0.000503851
0.000537287
0.000537287
0.000506297
0.000506297
0.000537287
0.000506297
0.000506297
0.000539732
0.000503851
0.000537287
0.000506297
0.000506297
0.000503851
0.000498412
0.000462532
0.000495967
0.000495967
0.000464978
0.000464978
0.000498412
0.000462532
0.000495967
0.000495967
0.000464978
0.000464978
0.000495968
0.000464978
0.000464978
0.000498412
0.000462532
0.000495967
0.000464978
0.000464978
0.000462532
0.000457093
0.000421213
0.000454649
0.000454648
0.000423659
0.000423659
0.000457093
0.000421213
0.000454648
0.000454649
0.000423659
0.000423659
0.000454649
0.000423659
0.000423659
0.000457093
0.000421213
0.000454648
0.000423659
0.000423659
0.000421213
0.000415775
0.000379893
0.00041333
0.00041333
0.000382339
0.000382339
0.000415775
0.000379893
0.00041333
0.00041333
0.000382339
0.000382339
0.00041333
0.000382339
0.000382339
0.000415775
0.000379893
0.00041333
0.000382339
0.000382339
0.000379893
0.000374456
0.000338575
0.000372012
0.000372012
0.000341021
0.000341021
0.000374456
0.000338575
0.000372012
0.000372012
0.000341021
0.000341021
0.000372012
0.000341021
0.000341021
0.000374456
0.000338575
0.000372012
0.000341021
0.000341021
0.000338575
0.000333137
0.000297257
0.000330693
0.000330693
0.000299704
0.000299704
0.000333136
0.000297257
0.000330693
0.000330693
0.000299704
0.000299704
0.000330694
0.000299704
0.000299704
0.000333137
0.000297257
0.000330693
0.000299704
0.000299704
0.000297257
0.000291808
0.000255948
0.000289367
0.000289367
0.000258391
0.000258391
0.000291808
0.000255948
0.000289368
0.000289367
0.000258391
0.000258391
0.000289367
0.000258391
0.000258391
0.000291808
0.000255948
0.000289368
0.000258391
0.000258391
0.000255948
0.000250492
0.000214618
0.000248053
0.000248053
0.000217058
0.000217057
0.000250492
0.000214618
0.000248053
0.000248053
0.000217057
0.000217057
0.000248053
0.000217058
0.000217058
0.000250492
0.000214618
0.000248053
0.000217057
0.000217057
0.000214618
0.000209174
0.000173304
0.000206739
0.000206739
0.000175742
0.000175742
0.000209174
0.000173304
0.000206739
0.000206739
0.000175742
0.000175742
0.000206739
0.000175742
0.000175742
0.000209174
0.000173304
0.000206739
0.000175742
0.000175742
0.000173304
0.000167833
0.000131985
0.000165409
0.000165409
0.000134419
0.000134419
0.000167833
0.000131985
0.000165408
0.000165409
0.000134418
0.000134418
0.000165409
0.000134419
0.000134419
0.000167833
0.000131984
0.000165409
0.000134418
0.000134419
0.000131985
0.00012649
9.06499e-05
0.000124083
0.000124083
9.30773e-05
9.30776e-05
0.00012649
9.06506e-05
0.000124083
0.000124083
9.30769e-05
9.30767e-05
0.000124083
9.30772e-05
9.30767e-05
0.00012649
9.0649e-05
0.000124083
9.30765e-05
9.30764e-05
9.06492e-05
8.51154e-05
4.93878e-05
8.27408e-05
8.2741e-05
5.18201e-05
5.18207e-05
8.51153e-05
4.93888e-05
8.27401e-05
8.27396e-05
5.18181e-05
5.18173e-05
8.27399e-05
5.18192e-05
5.18171e-05
8.51148e-05
4.93853e-05
8.27395e-05
5.18165e-05
5.18158e-05
4.93848e-05
4.38776e-05
1.16904e-05
4.16746e-05
4.16749e-05
1.40701e-05
1.40698e-05
4.38781e-05
1.16909e-05
4.16727e-05
4.1671e-05
1.40685e-05
1.40653e-05
4.16701e-05
1.40673e-05
1.40632e-05
4.38744e-05
1.16866e-05
4.1669e-05
1.40649e-05
1.40647e-05
1.16857e-05
8.0079e-06
8.14061e-06
8.14081e-06
8.00988e-06
8.13834e-06
8.13698e-06
8.05027e-06
8.04834e-06
8.04786e-06
8.13589e-06
8.00604e-06
8.13632e-06
0.00394084
0.003947
0.00394374
0.00394377
0.00396198
0.00394984
0.00397319
0.00394605
0.00396195
0.00394994
0.00394598
0.00397342
0.00395587
0.00397705
0.00397708
0.00390775
0.00392376
0.00392741
0.00390003
0.00390046
0.00390349
0.00390783
0.0039239
0.00392757
0.00389989
0.00392569
0.00392586
0.00392573
0.00389544
0.00389538
0.00389547
0.00389541
0.00390752
0.00392209
0.00392606
0.0039144
0.00392791
0.00390418
0.00391509
0.00390136
0.0039034
0.00390801
0.00392635
0.00392292
0.00391471
0.00392869
0.00391539
0.00390471
0.00392669
0.00392785
0.00391067
0.00390372
0.00390409
0.00388106
0.00389472
0.00389471
0.00387903
0.00389201
0.00387797
0.00388118
0.00389472
0.00389463
0.003879
0.00388706
0.00388708
0.0038871
0.00386078
0.00386079
0.00386071
0.00386076
0.00387889
0.00389381
0.00388657
0.00387921
0.00389137
0.00387906
0.00387849
0.00389204
0.00387787
0.00387893
0.00388669
0.00389387
0.00387941
0.00389151
0.00387859
0.00387934
0.0038952
0.00389558
0.00387762
0.00387956
0.00387945
0.0038385
0.00385338
0.00385441
0.00383664
0.00385228
0.00383572
0.0038386
0.00385342
0.00385434
0.00383659
0.00384989
0.00384986
0.00384986
0.00381543
0.00381544
0.0038154
0.00381541
0.00383632
0.00385328
0.00384903
0.00383823
0.00385222
0.00383707
0.00383781
0.0038521
0.00383587
0.00383627
0.00384911
0.00385357
0.00383817
0.00385228
0.0038378
0.00383691
0.00385387
0.00385394
0.00383542
0.00383724
0.00383727
0.00379003
0.00380691
0.00380853
0.00378842
0.00380602
0.00378763
0.00379005
0.00380654
0.00380859
0.00378824
0.00380355
0.00380351
0.00380353
0.00376706
0.00376706
0.00376701
0.00376705
0.00378846
0.00380723
0.00380302
0.00379146
0.00380653
0.0037894
0.00379104
0.00380582
0.00378773
0.00378835
0.00380297
0.00380691
0.00379128
0.00380646
0.00379094
0.00378917
0.00380702
0.00380724
0.00378803
0.00378879
0.00378879
0.00374052
0.00375699
0.00375955
0.00373822
0.00375667
0.00373776
0.00374048
0.00375733
0.00375953
0.00373829
0.0037547
0.00375465
0.00375469
0.00371703
0.00371705
0.00371706
0.00371704
0.00373881
0.0037582
0.00375425
0.00374217
0.00375754
0.00373945
0.00374188
0.00375634
0.00373758
0.00373876
0.00375419
0.00375753
0.003742
0.00375746
0.00374181
0.00373937
0.0037578
0.00375767
0.00373863
0.00373885
0.00373883
0.00368918
0.00370636
0.00370825
0.00368747
0.00370581
0.00368695
0.00368918
0.0037062
0.00370824
0.00368738
0.00370451
0.00370452
0.0037045
0.0036672
0.0036672
0.00366721
0.0036672
0.00368841
0.00370767
0.00370424
0.00369197
0.00370698
0.00368898
0.00369181
0.00370585
0.00368701
0.00368842
0.00370423
0.00370761
0.00369194
0.00370697
0.00369181
0.00368886
0.00370695
0.00370698