/*--------------------------------*- C++ -*----------------------------------*\
| =========                 |                                                 |
| \\      /  F ield         | OpenFOAM: The Open Source CFD Toolbox           |
|  \\    /   O peration     | Version:  v2012                                 |
|   \\  /    A nd           | Website:  www.openfoam.com                      |
|    \\/     M anipulation  |                                                 |
\*---------------------------------------------------------------------------*/
FoamFile
{
    version     2.0;
    format      ascii;
    class       volScalarField;
    location    "875";
    object      epsilon;
}
// * * * * * * * * * * * * * * * * * * * * * * * * * * * * * * * * * * * * * //

dimensions      [0 2 -3 0 0 0 0];


internalField   nonuniform List<scalar> 
171728
(
4.95567e-07
4.9733e-07
4.9733e-07
4.99575e-07
4.45573e-07
4.53735e-07
4.53737e-07
4.6371e-07
4.03752e-07
4.18513e-07
4.18517e-07
4.39411e-07
3.68363e-07
3.88552e-07
3.88558e-07
4.17667e-07
3.38015e-07
3.62102e-07
3.6211e-07
3.96081e-07
3.11646e-07
3.38273e-07
3.38281e-07
3.74581e-07
2.88473e-07
3.16638e-07
3.16646e-07
3.5371e-07
2.67923e-07
2.97021e-07
2.97031e-07
3.34148e-07
2.4958e-07
2.7937e-07
2.79379e-07
3.16484e-07
2.33137e-07
2.63679e-07
2.63688e-07
3.01162e-07
2.18366e-07
2.49955e-07
2.49964e-07
2.88494e-07
2.0509e-07
2.38198e-07
2.38208e-07
2.78697e-07
1.93172e-07
2.28412e-07
2.28422e-07
2.71879e-07
1.82498e-07
2.20601e-07
2.20612e-07
2.68164e-07
1.72979e-07
2.14774e-07
2.14787e-07
2.67642e-07
1.64541e-07
2.10938e-07
2.10954e-07
2.7049e-07
1.57122e-07
2.09107e-07
2.09126e-07
2.76695e-07
1.50668e-07
2.09297e-07
2.09319e-07
2.86285e-07
1.45137e-07
2.1155e-07
2.11577e-07
2.99237e-07
1.40492e-07
2.15886e-07
2.15917e-07
3.15612e-07
1.36703e-07
2.22325e-07
2.22359e-07
3.35364e-07
1.33748e-07
2.30886e-07
2.30923e-07
3.58391e-07
1.31605e-07
2.41552e-07
2.41593e-07
3.84529e-07
1.30258e-07
2.54305e-07
2.5435e-07
4.13525e-07
1.29696e-07
2.69099e-07
2.69148e-07
4.45036e-07
1.29921e-07
2.85869e-07
2.85923e-07
4.78679e-07
1.3091e-07
3.04529e-07
3.04588e-07
5.14019e-07
1.32666e-07
3.24975e-07
3.25039e-07
5.50614e-07
1.35188e-07
3.47087e-07
3.47155e-07
5.88012e-07
1.38479e-07
3.70729e-07
3.70802e-07
6.25796e-07
1.42541e-07
3.95755e-07
3.95832e-07
6.63578e-07
1.47378e-07
4.22005e-07
4.22087e-07
7.01034e-07
1.52997e-07
4.49318e-07
4.49404e-07
7.37888e-07
1.59403e-07
4.77521e-07
4.77611e-07
7.73931e-07
1.666e-07
5.06436e-07
5.06529e-07
8.08998e-07
1.74591e-07
5.35891e-07
5.35988e-07
8.42955e-07
1.83377e-07
5.65705e-07
5.65805e-07
8.75763e-07
1.92951e-07
5.95708e-07
5.95811e-07
9.07389e-07
2.03306e-07
6.25724e-07
6.2583e-07
9.37804e-07
2.14428e-07
6.55607e-07
6.55717e-07
9.67021e-07
2.2629e-07
6.85189e-07
6.853e-07
9.95023e-07
2.38867e-07
7.14345e-07
7.1446e-07
1.02184e-06
2.52131e-07
7.42958e-07
7.43074e-07
1.04751e-06
2.66025e-07
7.70907e-07
7.71025e-07
1.07205e-06
2.80509e-07
7.981e-07
7.98217e-07
1.0955e-06
2.9552e-07
8.24463e-07
8.2458e-07
1.11789e-06
3.10993e-07
8.4992e-07
8.50035e-07
1.13926e-06
3.26858e-07
8.74432e-07
8.74546e-07
1.15963e-06
3.43033e-07
8.97947e-07
8.98058e-07
1.17903e-06
3.59449e-07
9.20462e-07
9.20571e-07
1.19749e-06
3.76003e-07
9.41936e-07
9.42044e-07
1.21503e-06
3.92656e-07
9.62416e-07
9.62519e-07
1.23172e-06
4.0926e-07
9.81836e-07
9.81941e-07
1.24751e-06
4.25814e-07
1.00032e-06
1.00042e-06
1.26252e-06
4.42196e-07
1.01777e-06
1.01787e-06
1.27671e-06
4.58323e-07
1.03423e-06
1.03433e-06
1.29012e-06
4.74155e-07
1.04975e-06
1.04985e-06
1.30278e-06
4.89646e-07
1.06434e-06
1.06444e-06
1.31472e-06
5.04708e-07
1.07801e-06
1.0781e-06
1.32596e-06
5.19321e-07
1.0908e-06
1.09089e-06
1.33651e-06
5.33432e-07
1.10271e-06
1.1028e-06
1.34639e-06
5.4701e-07
1.11381e-06
1.11389e-06
1.35566e-06
5.60035e-07
1.1241e-06
1.12419e-06
1.36429e-06
5.72414e-07
1.13354e-06
1.13362e-06
1.37227e-06
5.84213e-07
1.14228e-06
1.14236e-06
1.3797e-06
5.95425e-07
1.15034e-06
1.15041e-06
1.38661e-06
6.05954e-07
1.15759e-06
1.15767e-06
1.39292e-06
6.15866e-07
1.16423e-06
1.1643e-06
1.3987e-06
6.25075e-07
1.17009e-06
1.17015e-06
1.40389e-06
6.33742e-07
1.17551e-06
1.17558e-06
1.40871e-06
6.41649e-07
1.18004e-06
1.18011e-06
1.41285e-06
6.48939e-07
1.18413e-06
1.18423e-06
1.41659e-06
6.55801e-07
1.18784e-06
1.18786e-06
1.42006e-06
6.61795e-07
1.19062e-06
1.19071e-06
1.42277e-06
6.67179e-07
1.19298e-06
1.19308e-06
1.4251e-06
6.72143e-07
1.19494e-06
1.19496e-06
1.42709e-06
6.76618e-07
1.19652e-06
1.19661e-06
1.42881e-06
6.80121e-07
1.1971e-06
1.19719e-06
1.42975e-06
6.83355e-07
1.19778e-06
1.19774e-06
1.43043e-06
6.86445e-07
1.19803e-06
1.19818e-06
1.43142e-06
6.88383e-07
1.19742e-06
1.19736e-06
1.43074e-06
6.90047e-07
1.19651e-06
1.1965e-06
1.43034e-06
6.91173e-07
1.19513e-06
1.19551e-06
1.42941e-06
6.93029e-07
1.19477e-06
1.19475e-06
1.42965e-06
6.94184e-07
1.19448e-06
1.19452e-06
1.43073e-06
6.92489e-07
1.18932e-06
1.189e-06
1.42497e-06
6.9102e-07
1.18518e-06
1.18525e-06
1.4207e-06
6.93269e-07
1.1852e-06
1.18806e-06
1.42468e-06
6.96003e-07
1.19039e-06
1.18992e-06
1.4287e-06
6.87945e-07
1.17802e-06
1.17143e-06
1.41223e-06
6.77216e-07
1.15107e-06
1.15693e-06
1.38838e-06
6.97514e-07
1.18382e-06
1.19576e-06
1.42898e-06
7.21459e-07
1.23026e-06
1.22351e-06
1.48023e-06
6.75998e-07
1.1506e-06
1.14043e-06
1.39729e-06
6.05085e-07
1.00104e-06
1.01664e-06
1.25309e-06
5.06417e-07
5.05584e-07
5.05582e-07
5.06417e-07
5.05583e-07
5.05582e-07
5.09649e-07
5.09649e-07
5.09649e-07
5.09649e-07
5.05584e-07
5.05584e-07
5.06418e-07
5.05584e-07
5.05583e-07
5.06418e-07
4.99575e-07
4.67237e-07
4.97331e-07
4.97335e-07
4.63713e-07
4.63721e-07
4.99575e-07
4.67235e-07
4.97335e-07
4.97336e-07
4.63718e-07
4.63724e-07
4.97332e-07
4.63709e-07
4.63714e-07
4.99575e-07
4.67241e-07
4.97334e-07
4.6371e-07
4.63719e-07
4.6724e-07
4.63709e-07
4.41426e-07
4.5374e-07
4.53748e-07
4.26738e-07
4.26747e-07
4.63708e-07
4.4142e-07
4.53744e-07
4.53751e-07
4.26739e-07
4.26751e-07
4.53741e-07
4.26729e-07
4.26741e-07
4.63711e-07
4.41431e-07
4.53744e-07
4.26734e-07
4.26741e-07
4.41429e-07
4.39407e-07
4.19283e-07
4.18522e-07
4.1853e-07
3.95676e-07
3.95682e-07
4.39405e-07
4.19275e-07
4.18522e-07
4.18535e-07
3.95672e-07
3.95689e-07
4.18525e-07
3.95663e-07
3.95679e-07
4.39413e-07
4.19289e-07
4.18523e-07
3.95669e-07
3.95673e-07
4.19287e-07
4.17662e-07
3.97645e-07
3.88566e-07
3.88571e-07
3.68461e-07
3.68466e-07
4.17656e-07
3.97636e-07
3.8856e-07
3.88578e-07
3.68452e-07
3.68473e-07
3.88569e-07
3.68444e-07
3.68464e-07
4.17669e-07
3.97651e-07
3.88562e-07
3.68452e-07
3.68454e-07
3.97649e-07
3.96076e-07
3.76085e-07
3.6212e-07
3.62124e-07
3.44033e-07
3.44036e-07
3.96069e-07
3.76075e-07
3.62109e-07
3.62131e-07
3.4402e-07
3.44043e-07
3.62123e-07
3.44013e-07
3.44036e-07
3.96082e-07
3.76091e-07
3.62111e-07
3.44022e-07
3.44021e-07
3.7609e-07
3.74575e-07
3.55111e-07
3.38293e-07
3.38295e-07
3.21875e-07
3.21876e-07
3.74568e-07
3.55101e-07
3.38279e-07
3.38303e-07
3.21858e-07
3.21884e-07
3.38296e-07
3.21853e-07
3.21877e-07
3.74581e-07
3.55117e-07
3.3828e-07
3.21862e-07
3.2186e-07
3.55116e-07
3.53704e-07
3.35395e-07
3.16659e-07
3.16661e-07
3.01763e-07
3.01764e-07
3.53696e-07
3.35385e-07
3.16642e-07
3.16668e-07
3.01745e-07
3.01771e-07
3.16662e-07
3.0174e-07
3.01765e-07
3.5371e-07
3.35401e-07
3.16644e-07
3.01749e-07
3.01746e-07
3.35401e-07
3.34142e-07
3.17533e-07
2.97044e-07
2.97045e-07
2.83623e-07
2.83623e-07
3.34134e-07
3.17523e-07
2.97025e-07
2.97053e-07
2.83603e-07
2.83631e-07
2.97047e-07
2.83599e-07
2.83625e-07
3.34148e-07
3.1754e-07
2.97027e-07
2.83608e-07
2.83604e-07
3.17538e-07
3.16478e-07
3.01976e-07
2.79394e-07
2.79394e-07
2.67442e-07
2.67442e-07
3.16471e-07
3.01965e-07
2.79374e-07
2.79402e-07
2.67421e-07
2.67449e-07
2.79396e-07
2.67417e-07
2.67443e-07
3.16485e-07
3.01982e-07
2.79375e-07
2.67426e-07
2.67421e-07
3.01982e-07
3.01155e-07
2.89042e-07
2.63704e-07
2.63704e-07
2.53227e-07
2.53227e-07
3.01147e-07
2.89032e-07
2.63682e-07
2.63711e-07
2.53204e-07
2.53234e-07
2.63705e-07
2.53201e-07
2.53228e-07
3.01162e-07
2.89049e-07
2.63683e-07
2.5321e-07
2.53205e-07
2.89048e-07
2.88487e-07
2.78951e-07
2.49981e-07
2.49981e-07
2.40981e-07
2.40981e-07
2.88479e-07
2.78939e-07
2.49959e-07
2.49989e-07
2.40957e-07
2.40988e-07
2.49982e-07
2.40952e-07
2.4098e-07
2.88494e-07
2.78959e-07
2.49959e-07
2.40962e-07
2.40957e-07
2.78957e-07
2.7869e-07
2.71833e-07
2.38227e-07
2.38227e-07
2.30702e-07
2.30703e-07
2.7868e-07
2.7182e-07
2.38204e-07
2.38235e-07
2.30677e-07
2.3071e-07
2.38228e-07
2.30671e-07
2.30701e-07
2.78698e-07
2.7184e-07
2.38204e-07
2.30681e-07
2.30677e-07
2.71839e-07
2.71871e-07
2.67862e-07
2.28442e-07
2.28444e-07
2.22399e-07
2.22401e-07
2.71861e-07
2.67852e-07
2.28417e-07
2.28452e-07
2.22372e-07
2.22409e-07
2.28442e-07
2.22364e-07
2.22397e-07
2.7188e-07
2.67876e-07
2.28418e-07
2.22376e-07
2.22372e-07
2.67871e-07
2.68154e-07
2.66981e-07
2.20633e-07
2.20638e-07
2.16077e-07
2.16081e-07
2.68146e-07
2.66969e-07
2.20608e-07
2.20646e-07
2.16049e-07
2.1609e-07
2.20634e-07
2.16039e-07
2.16074e-07
2.68168e-07
2.66995e-07
2.20609e-07
2.16051e-07
2.16048e-07
2.6699e-07
2.67636e-07
2.69157e-07
2.14811e-07
2.14817e-07
2.11745e-07
2.11753e-07
2.67625e-07
2.6914e-07
2.14784e-07
2.14826e-07
2.11718e-07
2.11762e-07
2.1481e-07
2.11702e-07
2.11741e-07
2.67649e-07
2.6917e-07
2.14783e-07
2.11717e-07
2.11714e-07
2.69164e-07
2.70484e-07
2.74666e-07
2.10982e-07
2.1099e-07
2.09415e-07
2.09423e-07
2.70468e-07
2.74641e-07
2.10955e-07
2.11e-07
2.09387e-07
2.09436e-07
2.10978e-07
2.09364e-07
2.09408e-07
2.70497e-07
2.74679e-07
2.1095e-07
2.09382e-07
2.0938e-07
2.7467e-07
2.76692e-07
2.83549e-07
2.09158e-07
2.09167e-07
2.09129e-07
2.09138e-07
2.76668e-07
2.83527e-07
2.09131e-07
2.0918e-07
2.09101e-07
2.09154e-07
2.09152e-07
2.09072e-07
2.09121e-07
2.76701e-07
2.83569e-07
2.09123e-07
2.09094e-07
2.09092e-07
2.83561e-07
2.86274e-07
2.95814e-07
2.09355e-07
2.09365e-07
2.10851e-07
2.10858e-07
2.86249e-07
2.95782e-07
2.09327e-07
2.09382e-07
2.10822e-07
2.10881e-07
2.09348e-07
2.10784e-07
2.10842e-07
2.86287e-07
2.9583e-07
2.09318e-07
2.1081e-07
2.10812e-07
2.95833e-07
2.99218e-07
3.115e-07
2.11616e-07
2.11626e-07
2.14675e-07
2.14685e-07
2.99183e-07
3.11467e-07
2.11588e-07
2.11649e-07
2.14643e-07
2.1471e-07
2.11608e-07
2.146e-07
2.14663e-07
2.99232e-07
3.11524e-07
2.11578e-07
2.14629e-07
2.14632e-07
3.1152e-07
3.15592e-07
3.30561e-07
2.15961e-07
2.15975e-07
2.20594e-07
2.20614e-07
3.15561e-07
3.30517e-07
2.15932e-07
2.16e-07
2.20564e-07
2.20639e-07
2.15951e-07
2.20515e-07
2.20586e-07
3.15618e-07
3.3058e-07
2.1592e-07
2.20547e-07
2.20554e-07
3.30584e-07
3.35345e-07
3.5291e-07
2.22403e-07
2.22428e-07
2.28628e-07
2.28661e-07
3.35301e-07
3.52872e-07
2.22376e-07
2.22453e-07
2.286e-07
2.28687e-07
2.22397e-07
2.28548e-07
2.28625e-07
3.35362e-07
3.52946e-07
2.22365e-07
2.28583e-07
2.28591e-07
3.52937e-07
3.58371e-07
3.78396e-07
2.30966e-07
2.31002e-07
2.38773e-07
2.38816e-07
3.58332e-07
3.78352e-07
2.3094e-07
2.31028e-07
2.38745e-07
2.38843e-07
2.30964e-07
2.38689e-07
2.38774e-07
3.584e-07
3.78432e-07
2.30929e-07
2.38727e-07
2.38738e-07
3.78428e-07
3.84502e-07
4.06784e-07
2.41637e-07
2.41683e-07
2.51014e-07
2.51066e-07
3.84459e-07
4.06743e-07
2.4161e-07
2.41711e-07
2.50984e-07
2.51095e-07
2.41639e-07
2.50925e-07
2.51018e-07
3.84534e-07
4.06832e-07
2.41601e-07
2.50967e-07
2.50979e-07
4.06822e-07
4.13491e-07
4.37749e-07
2.54397e-07
2.5445e-07
2.6531e-07
2.65368e-07
4.13449e-07
4.37699e-07
2.54368e-07
2.5448e-07
2.65277e-07
2.65399e-07
2.54401e-07
2.65212e-07
2.65316e-07
4.13531e-07
4.37795e-07
2.54363e-07
2.65258e-07
2.65279e-07
4.37791e-07
4.44998e-07
4.70909e-07
2.69198e-07
2.69257e-07
2.81601e-07
2.81665e-07
4.44949e-07
4.70858e-07
2.69167e-07
2.6929e-07
2.81563e-07
2.81698e-07
2.69205e-07
2.81495e-07
2.8161e-07
4.45038e-07
4.70965e-07
2.69168e-07
2.81546e-07
2.81572e-07
4.70963e-07
4.78631e-07
5.05855e-07
2.85977e-07
2.86041e-07
2.99808e-07
2.99875e-07
4.78581e-07
5.05797e-07
2.85941e-07
2.86076e-07
2.99764e-07
2.99911e-07
2.85987e-07
2.99692e-07
2.99819e-07
4.78678e-07
5.05912e-07
2.85948e-07
2.99747e-07
2.99776e-07
5.05911e-07
5.13969e-07
5.42126e-07
3.04646e-07
3.04714e-07
3.19826e-07
3.19899e-07
5.13914e-07
5.42069e-07
3.04604e-07
3.04752e-07
3.19776e-07
3.19937e-07
3.04658e-07
3.19703e-07
3.19841e-07
5.14019e-07
5.42192e-07
3.04615e-07
3.19762e-07
3.19794e-07
5.42193e-07
5.50553e-07
5.79296e-07
3.25102e-07
3.25172e-07
3.41545e-07
3.41619e-07
5.50497e-07
5.79232e-07
3.25053e-07
3.25214e-07
3.41486e-07
3.41659e-07
3.25117e-07
3.4141e-07
3.41562e-07
5.50611e-07
5.79364e-07
3.25069e-07
3.41474e-07
3.41507e-07
5.79365e-07
5.8795e-07
6.1692e-07
3.47224e-07
3.47295e-07
3.64826e-07
3.64904e-07
5.87889e-07
6.16856e-07
3.47167e-07
3.4734e-07
3.64758e-07
3.64945e-07
3.47241e-07
3.64683e-07
3.64847e-07
5.8801e-07
6.16994e-07
3.47186e-07
3.64751e-07
3.64785e-07
6.16999e-07
6.25724e-07
6.54626e-07
3.70875e-07
3.70946e-07
3.8953e-07
3.89608e-07
6.25663e-07
6.54557e-07
3.70809e-07
3.70996e-07
3.89453e-07
3.89652e-07
3.70897e-07
3.89377e-07
3.89554e-07
6.25789e-07
6.54701e-07
3.70833e-07
3.8945e-07
3.89484e-07
6.54708e-07
6.63504e-07
6.92067e-07
3.9591e-07
3.95978e-07
4.15499e-07
4.15574e-07
6.63439e-07
6.91995e-07
3.95835e-07
3.96033e-07
4.15411e-07
4.15622e-07
3.95934e-07
4.15337e-07
4.15526e-07
6.6357e-07
6.92146e-07
3.95863e-07
4.15413e-07
4.15447e-07
6.92154e-07
7.00954e-07
7.28965e-07
4.22169e-07
4.22242e-07
4.4257e-07
4.42642e-07
7.00887e-07
7.28886e-07
4.22084e-07
4.22294e-07
4.42472e-07
4.42694e-07
4.22198e-07
4.42399e-07
4.42601e-07
7.01023e-07
7.29044e-07
4.22117e-07
4.4248e-07
4.42512e-07
7.29055e-07
7.37807e-07
7.65101e-07
4.49491e-07
4.49563e-07
4.70573e-07
4.70646e-07
7.37733e-07
7.65019e-07
4.49396e-07
4.49616e-07
4.70466e-07
4.70698e-07
4.49522e-07
4.70397e-07
4.70609e-07
7.37877e-07
7.6518e-07
4.49432e-07
4.70481e-07
4.70511e-07
7.65193e-07
7.73847e-07
8.00299e-07
4.77699e-07
4.77771e-07
4.99333e-07
4.99402e-07
7.73771e-07
8.00215e-07
4.77594e-07
4.77825e-07
4.99216e-07
4.99457e-07
4.77735e-07
4.9915e-07
4.99371e-07
7.73917e-07
8.0038e-07
4.77636e-07
4.99237e-07
4.99265e-07
8.00391e-07
8.08915e-07
8.34436e-07
5.06621e-07
5.06689e-07
5.28673e-07
5.28741e-07
8.08836e-07
8.3435e-07
5.06508e-07
5.06745e-07
5.28548e-07
5.28798e-07
5.06661e-07
5.28487e-07
5.28718e-07
8.08985e-07
8.34519e-07
5.06553e-07
5.28578e-07
5.28604e-07
8.34534e-07
8.42865e-07
8.67452e-07
5.36077e-07
5.36146e-07
5.58417e-07
5.5848e-07
8.42786e-07
8.67364e-07
5.35957e-07
5.36204e-07
5.58286e-07
5.58538e-07
5.36124e-07
5.58226e-07
5.58466e-07
8.4294e-07
8.67529e-07
5.36008e-07
5.58321e-07
5.58344e-07
8.67546e-07
8.75677e-07
8.99298e-07
5.65897e-07
5.65959e-07
5.8839e-07
5.88452e-07
8.75592e-07
8.99214e-07
5.65771e-07
5.66019e-07
5.88254e-07
5.88512e-07
5.65948e-07
5.882e-07
5.88447e-07
8.75744e-07
8.99378e-07
5.65825e-07
5.88299e-07
5.88318e-07
8.99397e-07
9.07299e-07
9.29946e-07
5.95898e-07
5.95959e-07
6.18416e-07
6.18473e-07
9.07219e-07
9.29858e-07
5.95767e-07
5.96021e-07
6.18277e-07
6.18534e-07
5.95955e-07
6.18224e-07
6.18477e-07
9.0737e-07
9.3002e-07
5.95827e-07
6.18326e-07
6.18343e-07
9.3004e-07
9.37717e-07
9.59401e-07
6.25917e-07
6.25972e-07
6.48347e-07
6.48403e-07
9.37633e-07
9.59313e-07
6.25784e-07
6.26034e-07
6.48207e-07
6.48466e-07
6.25979e-07
6.48159e-07
6.48417e-07
9.37782e-07
9.59473e-07
6.25847e-07
6.48265e-07
6.48278e-07
9.59497e-07
9.66933e-07
9.87649e-07
6.55797e-07
6.55852e-07
6.78013e-07
6.78068e-07
9.66851e-07
9.87561e-07
6.55663e-07
6.55914e-07
6.77874e-07
6.78128e-07
6.55865e-07
6.77827e-07
6.78089e-07
9.66997e-07
9.87712e-07
6.55731e-07
6.77936e-07
6.77951e-07
9.87739e-07
9.94935e-07
1.01471e-06
6.85372e-07
6.85424e-07
7.07281e-07
7.07334e-07
9.94855e-07
1.01463e-06
6.85245e-07
6.85489e-07
7.07148e-07
7.07398e-07
6.85451e-07
7.07102e-07
7.07365e-07
9.94994e-07
1.01477e-06
6.85314e-07
7.07214e-07
7.07227e-07
1.0148e-06
1.02175e-06
1.04062e-06
7.14524e-07
7.14575e-07
7.36042e-07
7.36087e-07
1.02168e-06
1.04053e-06
7.14398e-07
7.1464e-07
7.35913e-07
7.36152e-07
7.14608e-07
7.35862e-07
7.36128e-07
1.02181e-06
1.04067e-06
7.1447e-07
7.35978e-07
7.3599e-07
1.0407e-06
1.04743e-06
1.06539e-06
7.43137e-07
7.43181e-07
7.64157e-07
7.64204e-07
1.04734e-06
1.0653e-06
7.43015e-07
7.43246e-07
7.64031e-07
7.64268e-07
7.43225e-07
7.63987e-07
7.64252e-07
1.04747e-06
1.06544e-06
7.43088e-07
7.64104e-07
7.64115e-07
1.06548e-06
1.07196e-06
1.08907e-06
7.71076e-07
7.71122e-07
7.91546e-07
7.91588e-07
1.07188e-06
1.08898e-06
7.70957e-07
7.71188e-07
7.91422e-07
7.91651e-07
7.71171e-07
7.91378e-07
7.91639e-07
1.07201e-06
1.08912e-06
7.71035e-07
7.91495e-07
7.91504e-07
1.08915e-06
1.09542e-06
1.11169e-06
7.98269e-07
7.98308e-07
8.18116e-07
8.18155e-07
1.09533e-06
1.1116e-06
7.98151e-07
7.98372e-07
8.17993e-07
8.18216e-07
7.98363e-07
8.17953e-07
8.18213e-07
1.09546e-06
1.11173e-06
7.98228e-07
8.18069e-07
8.1808e-07
1.11177e-06
1.11781e-06
1.13328e-06
8.24624e-07
8.24663e-07
8.43803e-07
8.43838e-07
1.11772e-06
1.13319e-06
8.24508e-07
8.24725e-07
8.43682e-07
8.43898e-07
8.24722e-07
8.43644e-07
8.43899e-07
1.11785e-06
1.13331e-06
8.2459e-07
8.4376e-07
8.43769e-07
1.13335e-06
1.13918e-06
1.15385e-06
8.50079e-07
8.50112e-07
8.68548e-07
8.68581e-07
1.1391e-06
1.15377e-06
8.49964e-07
8.50172e-07
8.68426e-07
8.68638e-07
8.50175e-07
8.68394e-07
8.68644e-07
1.13922e-06
1.15389e-06
8.50046e-07
8.68507e-07
8.68517e-07
1.15393e-06
1.15955e-06
1.17346e-06
8.74584e-07
8.74617e-07
8.92313e-07
8.92342e-07
1.15947e-06
1.17338e-06
8.74469e-07
8.74675e-07
8.92192e-07
8.92398e-07
8.74681e-07
8.92162e-07
8.92407e-07
1.15958e-06
1.1735e-06
8.74555e-07
8.92275e-07
8.92283e-07
1.17354e-06
1.17895e-06
1.19212e-06
8.98098e-07
8.98125e-07
9.15077e-07
9.15103e-07
1.17887e-06
1.19204e-06
8.97983e-07
8.9818e-07
9.14956e-07
9.15154e-07
8.98192e-07
9.1493e-07
9.1517e-07
1.17898e-06
1.19215e-06
8.98069e-07
9.15038e-07
9.15049e-07
1.1922e-06
1.19741e-06
1.20986e-06
9.20607e-07
9.20633e-07
9.36801e-07
9.36827e-07
1.19733e-06
1.20978e-06
9.20493e-07
9.20686e-07
9.36681e-07
9.3688e-07
9.20703e-07
9.36661e-07
9.36892e-07
1.19744e-06
1.20989e-06
9.20583e-07
9.36771e-07
9.36774e-07
1.20994e-06
1.21496e-06
1.22673e-06
9.42075e-07
9.42101e-07
9.57534e-07
9.57555e-07
1.21488e-06
1.22664e-06
9.41962e-07
9.42153e-07
9.57415e-07
9.576e-07
9.42166e-07
9.57394e-07
9.57622e-07
1.21499e-06
1.22675e-06
9.4205e-07
9.57497e-07
9.57507e-07
1.2268e-06
1.23164e-06
1.2427e-06
9.62556e-07
9.62576e-07
9.77205e-07
9.77228e-07
1.23156e-06
1.24262e-06
9.62443e-07
9.62622e-07
9.77087e-07
9.77276e-07
9.62649e-07
9.77073e-07
9.77296e-07
1.23167e-06
1.24273e-06
9.62534e-07
9.77179e-07
9.77183e-07
1.24278e-06
1.24743e-06
1.25787e-06
9.81965e-07
9.8199e-07
9.95918e-07
9.9594e-07
1.24735e-06
1.2578e-06
9.81853e-07
9.82038e-07
9.95801e-07
9.95981e-07
9.82057e-07
9.95788e-07
9.96003e-07
1.24746e-06
1.2579e-06
9.81945e-07
9.95888e-07
9.95892e-07
1.25795e-06
1.26245e-06
1.27224e-06
1.00045e-06
1.00047e-06
1.01363e-06
1.01365e-06
1.26237e-06
1.27217e-06
1.00034e-06
1.00051e-06
1.01352e-06
1.01369e-06
1.00054e-06
1.01351e-06
1.01372e-06
1.26247e-06
1.27227e-06
1.00043e-06
1.01361e-06
1.01361e-06
1.27232e-06
1.27664e-06
1.28581e-06
1.01789e-06
1.01792e-06
1.03033e-06
1.03034e-06
1.27656e-06
1.28573e-06
1.01778e-06
1.01796e-06
1.03021e-06
1.03039e-06
1.01798e-06
1.0302e-06
1.03041e-06
1.27667e-06
1.28583e-06
1.01788e-06
1.0303e-06
1.0303e-06
1.28588e-06
1.29004e-06
1.29861e-06
1.03435e-06
1.03437e-06
1.04607e-06
1.0461e-06
1.28997e-06
1.29854e-06
1.03425e-06
1.03441e-06
1.04596e-06
1.04613e-06
1.03444e-06
1.04596e-06
1.04616e-06
1.29007e-06
1.29864e-06
1.03434e-06
1.04605e-06
1.04606e-06
1.2987e-06
1.30269e-06
1.31071e-06
1.04986e-06
1.04989e-06
1.0609e-06
1.06092e-06
1.30263e-06
1.31064e-06
1.04976e-06
1.04993e-06
1.06079e-06
1.06096e-06
1.04996e-06
1.06078e-06
1.06098e-06
1.30272e-06
1.31074e-06
1.04985e-06
1.06088e-06
1.06087e-06
1.31078e-06
1.31465e-06
1.32209e-06
1.06446e-06
1.06448e-06
1.07479e-06
1.07481e-06
1.31458e-06
1.32202e-06
1.06435e-06
1.06451e-06
1.07468e-06
1.07484e-06
1.06454e-06
1.07467e-06
1.07487e-06
1.31468e-06
1.32212e-06
1.06444e-06
1.07476e-06
1.07477e-06
1.32217e-06
1.32588e-06
1.33278e-06
1.07812e-06
1.07814e-06
1.08779e-06
1.08781e-06
1.32582e-06
1.33271e-06
1.07801e-06
1.07817e-06
1.08768e-06
1.08784e-06
1.07821e-06
1.08768e-06
1.08787e-06
1.32591e-06
1.33281e-06
1.0781e-06
1.08777e-06
1.08777e-06
1.33286e-06
1.33644e-06
1.3428e-06
1.0909e-06
1.09093e-06
1.09992e-06
1.09994e-06
1.33637e-06
1.34273e-06
1.0908e-06
1.09096e-06
1.09981e-06
1.09997e-06
1.09099e-06
1.09981e-06
1.1e-06
1.33646e-06
1.34283e-06
1.09089e-06
1.0999e-06
1.0999e-06
1.34287e-06
1.34632e-06
1.35218e-06
1.10281e-06
1.10284e-06
1.11121e-06
1.11123e-06
1.34626e-06
1.35212e-06
1.10271e-06
1.10287e-06
1.1111e-06
1.11125e-06
1.1029e-06
1.1111e-06
1.11129e-06
1.34634e-06
1.35221e-06
1.1028e-06
1.11118e-06
1.11119e-06
1.35226e-06
1.35558e-06
1.36096e-06
1.11391e-06
1.11393e-06
1.12171e-06
1.12173e-06
1.35552e-06
1.36089e-06
1.11381e-06
1.11396e-06
1.1216e-06
1.12176e-06
1.114e-06
1.12161e-06
1.12179e-06
1.3556e-06
1.36098e-06
1.11389e-06
1.12169e-06
1.12169e-06
1.36103e-06
1.36422e-06
1.36905e-06
1.12419e-06
1.12422e-06
1.13134e-06
1.13137e-06
1.36416e-06
1.369e-06
1.12409e-06
1.12426e-06
1.13123e-06
1.1314e-06
1.12428e-06
1.13125e-06
1.13142e-06
1.36425e-06
1.36909e-06
1.12418e-06
1.13133e-06
1.13133e-06
1.36913e-06
1.37219e-06
1.3766e-06
1.13363e-06
1.13366e-06
1.14026e-06
1.14028e-06
1.37214e-06
1.37653e-06
1.13353e-06
1.13368e-06
1.14015e-06
1.1403e-06
1.13372e-06
1.14016e-06
1.14033e-06
1.37222e-06
1.37662e-06
1.13362e-06
1.14023e-06
1.14023e-06
1.37667e-06
1.37964e-06
1.3836e-06
1.14238e-06
1.1424e-06
1.14848e-06
1.14851e-06
1.37957e-06
1.38355e-06
1.14228e-06
1.14243e-06
1.14837e-06
1.14853e-06
1.14246e-06
1.14839e-06
1.14856e-06
1.37965e-06
1.38363e-06
1.14236e-06
1.14847e-06
1.14846e-06
1.38368e-06
1.38653e-06
1.39004e-06
1.15041e-06
1.15045e-06
1.15593e-06
1.15596e-06
1.38648e-06
1.38998e-06
1.15031e-06
1.15047e-06
1.15583e-06
1.15598e-06
1.1505e-06
1.15584e-06
1.15601e-06
1.38656e-06
1.39007e-06
1.15041e-06
1.15591e-06
1.15592e-06
1.39011e-06
1.39285e-06
1.39592e-06
1.15769e-06
1.15771e-06
1.16272e-06
1.16274e-06
1.39279e-06
1.39585e-06
1.15759e-06
1.15774e-06
1.16262e-06
1.16277e-06
1.15776e-06
1.16263e-06
1.1628e-06
1.39288e-06
1.39595e-06
1.15767e-06
1.16271e-06
1.16271e-06
1.39599e-06
1.39862e-06
1.40122e-06
1.16431e-06
1.16434e-06
1.16876e-06
1.1688e-06
1.39857e-06
1.40117e-06
1.16421e-06
1.16436e-06
1.16866e-06
1.1688e-06
1.1644e-06
1.16868e-06
1.16884e-06
1.39866e-06
1.40124e-06
1.1643e-06
1.16874e-06
1.16874e-06
1.40129e-06
1.40382e-06
1.40611e-06
1.17018e-06
1.17021e-06
1.17429e-06
1.17431e-06
1.40377e-06
1.40605e-06
1.17008e-06
1.17022e-06
1.1742e-06
1.17434e-06
1.17025e-06
1.1742e-06
1.17436e-06
1.40384e-06
1.40614e-06
1.17016e-06
1.17428e-06
1.17427e-06
1.40617e-06
1.40865e-06
1.4104e-06
1.17559e-06
1.17562e-06
1.17907e-06
1.17911e-06
1.40859e-06
1.41036e-06
1.1755e-06
1.17564e-06
1.17897e-06
1.17911e-06
1.17567e-06
1.179e-06
1.17916e-06
1.40867e-06
1.41043e-06
1.17558e-06
1.17905e-06
1.17906e-06
1.41049e-06
1.41277e-06
1.41415e-06
1.18012e-06
1.18015e-06
1.18319e-06
1.18321e-06
1.41273e-06
1.41409e-06
1.18002e-06
1.18016e-06
1.1831e-06
1.18327e-06
1.18021e-06
1.1831e-06
1.18327e-06
1.4128e-06
1.41421e-06
1.18012e-06
1.18321e-06
1.18319e-06
1.41423e-06
1.41651e-06
1.41776e-06
1.18422e-06
1.18424e-06
1.18709e-06
1.18711e-06
1.41646e-06
1.41771e-06
1.18413e-06
1.1843e-06
1.18698e-06
1.1871e-06
1.1843e-06
1.187e-06
1.18715e-06
1.41657e-06
1.41776e-06
1.18422e-06
1.18703e-06
1.18705e-06
1.41782e-06
1.42001e-06
1.42061e-06
1.18793e-06
1.18795e-06
1.19007e-06
1.1901e-06
1.41996e-06
1.42054e-06
1.18783e-06
1.18793e-06
1.18997e-06
1.19011e-06
1.18799e-06
1.18998e-06
1.19012e-06
1.41999e-06
1.42062e-06
1.18789e-06
1.19005e-06
1.19003e-06
1.42065e-06
1.42272e-06
1.42291e-06
1.19069e-06
1.19073e-06
1.19244e-06
1.19249e-06
1.42266e-06
1.42289e-06
1.1906e-06
1.19077e-06
1.19237e-06
1.19257e-06
1.19077e-06
1.1924e-06
1.19258e-06
1.42276e-06
1.42301e-06
1.19068e-06
1.19251e-06
1.1925e-06
1.42303e-06
1.42498e-06
1.42501e-06
1.19303e-06
1.19308e-06
1.19459e-06
1.19463e-06
1.42496e-06
1.42498e-06
1.19296e-06
1.19313e-06
1.19448e-06
1.19458e-06
1.19316e-06
1.19452e-06
1.19466e-06
1.42506e-06
1.42501e-06
1.19308e-06
1.19453e-06
1.19457e-06
1.42509e-06
1.42702e-06
1.42683e-06
1.19502e-06
1.19505e-06
1.19628e-06
1.19626e-06
1.42698e-06
1.42672e-06
1.19491e-06
1.19501e-06
1.19619e-06
1.19632e-06
1.19509e-06
1.19614e-06
1.19632e-06
1.427e-06
1.42682e-06
1.195e-06
1.19624e-06
1.19622e-06
1.42686e-06
1.4288e-06
1.42798e-06
1.19667e-06
1.19665e-06
1.19714e-06
1.1972e-06
1.42867e-06
1.42793e-06
1.19658e-06
1.1967e-06
1.19706e-06
1.19723e-06
1.19668e-06
1.19708e-06
1.1972e-06
1.42879e-06
1.42803e-06
1.19659e-06
1.19715e-06
1.19711e-06
1.428e-06
1.42971e-06
1.4282e-06
1.19714e-06
1.19721e-06
1.19741e-06
1.19754e-06
1.4297e-06
1.42826e-06
1.19706e-06
1.19725e-06
1.19731e-06
1.19749e-06
1.19724e-06
1.19748e-06
1.19765e-06
1.42978e-06
1.42829e-06
1.19716e-06
1.19748e-06
1.19757e-06
1.42845e-06
1.43025e-06
1.42964e-06
1.19778e-06
1.19787e-06
1.19825e-06
1.19823e-06
1.4303e-06
1.42955e-06
1.19766e-06
1.19777e-06
1.19815e-06
1.19827e-06
1.19793e-06
1.19809e-06
1.19825e-06
1.43027e-06
1.42955e-06
1.19782e-06
1.19819e-06
1.19817e-06
1.42963e-06
1.43144e-06
1.42896e-06
1.1982e-06
1.19816e-06
1.19758e-06
1.19758e-06
1.43132e-06
1.42879e-06
1.19812e-06
1.19826e-06
1.19754e-06
1.19776e-06
1.19821e-06
1.1975e-06
1.19769e-06
1.43137e-06
1.42919e-06
1.19814e-06
1.19767e-06
1.1976e-06
1.42906e-06
1.43066e-06
1.42876e-06
1.19742e-06
1.19748e-06
1.19686e-06
1.19691e-06
1.43057e-06
1.42886e-06
1.19735e-06
1.19746e-06
1.19675e-06
1.19675e-06
1.19752e-06
1.1968e-06
1.1969e-06
1.43078e-06
1.42834e-06
1.19739e-06
1.19666e-06
1.19674e-06
1.42866e-06
1.43043e-06
1.42732e-06
1.19657e-06
1.19662e-06
1.1954e-06
1.19554e-06
1.43044e-06
1.42743e-06
1.19648e-06
1.19656e-06
1.19533e-06
1.19583e-06
1.1967e-06
1.19543e-06
1.19568e-06
1.43002e-06
1.42817e-06
1.19657e-06
1.19587e-06
1.19571e-06
1.42785e-06
1.42891e-06
1.42775e-06
1.19511e-06
1.19524e-06
1.19492e-06
1.19486e-06
1.4291e-06
1.42749e-06
1.19502e-06
1.19546e-06
1.19479e-06
1.19481e-06
1.19534e-06
1.19472e-06
1.19491e-06
1.42976e-06
1.42722e-06
1.19537e-06
1.19475e-06
1.19484e-06
1.42758e-06
1.42983e-06
1.42919e-06
1.19515e-06
1.19493e-06
1.19515e-06
1.19488e-06
1.42948e-06
1.42865e-06
1.19501e-06
1.19483e-06
1.19509e-06
1.19493e-06
1.19498e-06
1.19478e-06
1.19509e-06
1.42926e-06
1.42883e-06
1.19488e-06
1.19475e-06
1.19493e-06
1.42907e-06
1.43075e-06
1.42371e-06
1.19473e-06
1.19455e-06
1.1903e-06
1.1907e-06
1.43031e-06
1.42412e-06
1.19471e-06
1.19469e-06
1.19029e-06
1.19069e-06
1.19479e-06
1.19067e-06
1.19051e-06
1.43056e-06
1.42392e-06
1.19463e-06
1.19061e-06
1.19038e-06
1.42375e-06
1.42495e-06
1.41883e-06
1.18887e-06
1.18938e-06
1.18564e-06
1.18597e-06
1.42542e-06
1.41939e-06
1.18879e-06
1.18907e-06
1.18542e-06
1.18552e-06
1.18897e-06
1.18585e-06
1.18589e-06
1.42513e-06
1.41879e-06
1.18883e-06
1.18553e-06
1.18576e-06
1.41908e-06
1.42036e-06
1.42044e-06
1.18522e-06
1.18529e-06
1.18577e-06
1.18452e-06
1.42085e-06
1.41874e-06
1.18502e-06
1.18518e-06
1.18592e-06
1.18652e-06
1.1857e-06
1.18455e-06
1.18701e-06
1.42033e-06
1.42129e-06
1.18561e-06
1.18672e-06
1.18727e-06
1.422e-06
1.42325e-06
1.42791e-06
1.18702e-06
1.18508e-06
1.19032e-06
1.18988e-06
1.42109e-06
1.42635e-06
1.1873e-06
1.18795e-06
1.19042e-06
1.19044e-06
1.18799e-06
1.18971e-06
1.1895e-06
1.42419e-06
1.42807e-06
1.18829e-06
1.19013e-06
1.18949e-06
1.4269e-06
1.43031e-06
1.4154e-06
1.19039e-06
1.19068e-06
1.18154e-06
1.18645e-06
1.42963e-06
1.42148e-06
1.19041e-06
1.19032e-06
1.18023e-06
1.17838e-06
1.18934e-06
1.18601e-06
1.17903e-06
1.43011e-06
1.4124e-06
1.18914e-06
1.17783e-06
1.17788e-06
1.41269e-06
1.41438e-06
1.38149e-06
1.17373e-06
1.17834e-06
1.1538e-06
1.15341e-06
1.42064e-06
1.3807e-06
1.17281e-06
1.17157e-06
1.1543e-06
1.15612e-06
1.17307e-06
1.15388e-06
1.15775e-06
1.41154e-06
1.38417e-06
1.17227e-06
1.15703e-06
1.15873e-06
1.38716e-06
1.38237e-06
1.40944e-06
1.15281e-06
1.15047e-06
1.172e-06
1.163e-06
1.38081e-06
1.39792e-06
1.15364e-06
1.15595e-06
1.17429e-06
1.17955e-06
1.1573e-06
1.16356e-06
1.17631e-06
1.38548e-06
1.41681e-06
1.15852e-06
1.18032e-06
1.17889e-06
1.41504e-06
1.42489e-06
1.48253e-06
1.1904e-06
1.18362e-06
1.2269e-06
1.22853e-06
1.41389e-06
1.4829e-06
1.19184e-06
1.19552e-06
1.22612e-06
1.22471e-06
1.19208e-06
1.22792e-06
1.22233e-06
1.43162e-06
1.48037e-06
1.19367e-06
1.22362e-06
1.22113e-06
1.47649e-06
1.4877e-06
1.41504e-06
1.22793e-06
1.23097e-06
1.17457e-06
1.18406e-06
1.49111e-06
1.42633e-06
1.22685e-06
1.22472e-06
1.17234e-06
1.16759e-06
1.22268e-06
1.18367e-06
1.17064e-06
1.48375e-06
1.406e-06
1.22113e-06
1.16669e-06
1.16781e-06
1.40821e-06
1.40227e-06
1.26329e-06
1.14428e-06
1.15036e-06
1.04455e-06
1.0422e-06
1.41301e-06
1.26207e-06
1.14298e-06
1.14063e-06
1.04631e-06
1.05346e-06
1.14417e-06
1.04451e-06
1.05628e-06
1.39423e-06
1.27319e-06
1.14229e-06
1.05564e-06
1.05801e-06
1.27802e-06
1.23635e-06
1.00308e-06
9.98881e-07
1.23306e-06
1.00513e-06
1.0143e-06
6.02733e-07
6.11506e-07
6.11781e-07
1.01607e-06
1.24889e-06
1.01843e-06
5.35663e-07
5.35601e-07
5.35655e-07
5.35655e-07
5.34573e-07
5.35516e-07
5.33634e-07
5.35654e-07
5.34573e-07
5.35517e-07
5.35654e-07
5.33634e-07
5.35256e-07
5.35986e-07
5.35987e-07
1.10713e-06
3.88086e-06
9.33891e-07
4.6061e-06
1.26081e-05
1.66011e-05
1.10725e-06
3.88107e-06
9.33924e-07
4.60652e-06
4.95567e-07
4.95567e-07
4.95567e-07
4.57231e-07
4.57231e-07
4.57232e-07
4.57232e-07
5.43144e-07
1.22026e-06
4.95565e-07
4.85522e-07
5.25341e-07
1.20946e-06
4.82301e-07
1.26097e-05
1.66037e-05
5.43162e-07
4.95565e-07
1.22025e-06
4.85523e-07
5.2532e-07
4.82302e-07
1.20945e-06
2.52172e-06
2.52242e-06
4.8419e-07
2.37248e-06
2.37287e-06
1.4308e-06
5.5934e-06
1.32967e-06
6.1363e-06
2.12845e-05
2.31104e-05
1.4312e-06
5.594e-06
1.32973e-06
6.13694e-06
4.45572e-07
4.45573e-07
4.45573e-07
4.13542e-07
4.13542e-07