/*--------------------------------*- C++ -*----------------------------------*\
| =========                 |                                                 |
| \\      /  F ield         | OpenFOAM: The Open Source CFD Toolbox           |
|  \\    /   O peration     | Version:  v2012                                 |
|   \\  /    A nd           | Website:  www.openfoam.com                      |
|    \\/     M anipulation  |                                                 |
\*---------------------------------------------------------------------------*/
FoamFile
{
    version     2.0;
    format      ascii;
    class       volScalarField;
    location    "875";
    object      k;
}
// * * * * * * * * * * * * * * * * * * * * * * * * * * * * * * * * * * * * * //

dimensions      [0 2 -2 0 0 0 0];


internalField   nonuniform List<scalar> 
171728
(
3.58932e-05
3.58912e-05
3.58912e-05
3.59957e-05
3.39296e-05
3.3889e-05
3.3889e-05
3.39622e-05
3.21578e-05
3.20081e-05
3.20081e-05
3.19522e-05
3.05346e-05
3.02293e-05
3.02292e-05
2.99884e-05
2.90329e-05
2.8554e-05
2.85539e-05
2.81226e-05
2.76353e-05
2.69872e-05
2.69871e-05
2.63907e-05
2.63308e-05
2.5531e-05
2.55309e-05
2.48074e-05
2.51112e-05
2.4185e-05
2.41848e-05
2.33782e-05
2.39709e-05
2.29506e-05
2.29504e-05
2.21048e-05
2.29058e-05
2.18269e-05
2.18267e-05
2.09861e-05
2.1912e-05
2.08115e-05
2.08113e-05
2.00136e-05
2.09865e-05
1.99016e-05
1.99014e-05
1.91837e-05
2.01241e-05
1.90948e-05
1.90947e-05
1.84913e-05
1.9324e-05
1.83902e-05
1.83904e-05
1.79516e-05
1.85853e-05
1.77849e-05
1.77838e-05
1.75488e-05
1.79054e-05
1.72898e-05
1.72873e-05
1.73253e-05
1.72811e-05
1.68612e-05
1.68596e-05
1.70814e-05
1.67118e-05
1.65306e-05
1.65278e-05
1.70587e-05
1.61935e-05
1.62857e-05
1.62927e-05
1.70613e-05
1.57246e-05
1.61407e-05
1.6158e-05
1.73308e-05
1.53082e-05
1.61366e-05
1.61106e-05
1.76639e-05
1.49373e-05
1.6152e-05
1.61644e-05
1.80657e-05
1.46145e-05
1.62778e-05
1.62639e-05
1.87061e-05
1.43374e-05
1.65134e-05
1.6513e-05
1.95386e-05
1.41062e-05
1.6819e-05
1.68344e-05
2.02047e-05
1.39236e-05
1.72382e-05
1.72515e-05
2.10385e-05
1.37835e-05
1.77087e-05
1.77026e-05
2.20233e-05
1.36897e-05
1.82808e-05
1.82687e-05
2.30124e-05
1.36419e-05
1.88903e-05
1.88999e-05
2.40513e-05
1.36385e-05
1.96005e-05
1.96043e-05
2.51145e-05
1.36802e-05
2.03519e-05
2.03539e-05
2.61959e-05
1.37698e-05
2.1162e-05
2.11639e-05
2.72849e-05
1.39048e-05
2.20331e-05
2.20345e-05
2.83559e-05
1.40854e-05
2.29414e-05
2.29434e-05
2.94291e-05
1.43138e-05
2.38819e-05
2.38841e-05
3.04762e-05
1.45875e-05
2.48563e-05
2.48589e-05
3.15308e-05
1.4909e-05
2.58548e-05
2.58569e-05
3.25311e-05
1.52756e-05
2.68714e-05
2.68735e-05
3.35366e-05
1.56887e-05
2.78985e-05
2.79021e-05
3.45039e-05
1.61462e-05
2.89319e-05
2.89337e-05
3.54473e-05
1.66469e-05
2.99691e-05
2.99717e-05
3.63772e-05
1.71901e-05
3.09997e-05
3.10023e-05
3.72653e-05
1.77727e-05
3.20221e-05
3.20253e-05
3.81447e-05
1.83944e-05
3.30382e-05
3.30406e-05
3.89887e-05
1.90504e-05
3.40323e-05
3.40353e-05
3.98126e-05
1.97382e-05
3.50089e-05
3.50117e-05
4.05999e-05
2.04554e-05
3.59684e-05
3.59707e-05
4.13908e-05
2.12009e-05
3.69023e-05
3.69053e-05
4.21244e-05
2.19615e-05
3.78026e-05
3.78049e-05
4.2843e-05
2.27454e-05
3.86925e-05
3.86953e-05
4.35593e-05
2.35448e-05
3.95461e-05
3.95479e-05
4.42239e-05
2.4346e-05
4.03641e-05
4.03668e-05
4.48608e-05
2.51605e-05
4.11669e-05
4.11692e-05
4.55058e-05
2.5977e-05
4.19375e-05
4.19396e-05
4.61022e-05
2.67902e-05
4.26715e-05
4.26732e-05
4.66724e-05
2.75979e-05
4.3384e-05
4.33862e-05
4.72367e-05
2.84032e-05
4.40655e-05
4.40671e-05
4.77682e-05
2.91928e-05
4.4719e-05
4.47211e-05
4.82742e-05
2.99739e-05
4.53439e-05
4.53456e-05
4.87738e-05
3.07388e-05
4.5943e-05
4.59434e-05
4.92353e-05
3.14804e-05
4.65002e-05
4.65033e-05
4.96669e-05
3.22137e-05
4.70665e-05
4.70656e-05
5.01357e-05
3.29176e-05
4.75472e-05
4.75508e-05
5.04689e-05
3.35874e-05
4.80408e-05
4.80404e-05
5.08883e-05
3.42659e-05
4.85382e-05
4.85383e-05
5.12878e-05
3.49032e-05
4.89441e-05
4.89485e-05
5.15874e-05
3.54973e-05
4.9351e-05
4.93489e-05
5.19174e-05
3.60852e-05
4.9751e-05
4.97518e-05
5.22266e-05
3.66418e-05
5.00959e-05
5.00968e-05
5.25042e-05
3.71668e-05
5.04409e-05
5.04432e-05
5.27837e-05
3.76681e-05
5.07457e-05
5.07477e-05
5.29945e-05
3.81308e-05
5.10263e-05
5.10187e-05
5.32536e-05
3.85991e-05
5.13448e-05
5.13514e-05
5.35234e-05
3.90102e-05
5.15543e-05
5.15557e-05
5.36368e-05
3.9372e-05
5.17244e-05
5.1725e-05
5.37835e-05
3.97385e-05
5.19823e-05
5.19777e-05
5.40037e-05
4.00839e-05
5.21521e-05
5.21526e-05
5.41444e-05
4.03939e-05
5.23243e-05
5.23321e-05
5.42799e-05
4.06572e-05
5.23997e-05
5.23981e-05
5.42942e-05
4.0928e-05
5.26386e-05
5.26292e-05
5.45996e-05
4.11808e-05
5.26791e-05
5.26703e-05
5.4504e-05
4.1287e-05
5.26166e-05
5.26401e-05
5.44201e-05
4.15285e-05
5.28964e-05
5.28602e-05
5.48296e-05
4.17786e-05
5.29528e-05
5.29408e-05
5.47752e-05
4.18124e-05
5.282e-05
5.28514e-05
5.45958e-05
4.18632e-05
5.28131e-05
5.27951e-05
5.45994e-05
4.2113e-05
5.30809e-05
5.30892e-05
5.5075e-05
4.21834e-05
5.28497e-05
5.29266e-05
5.4482e-05
4.21037e-05
5.2764e-05
5.26414e-05
5.44445e-05
4.21637e-05
5.28592e-05
5.3023e-05
5.49235e-05
4.24441e-05
5.30445e-05
5.30626e-05
5.48845e-05
4.25487e-05
5.31892e-05
5.29588e-05
5.5207e-05
4.18073e-05
5.16841e-05
5.1812e-05
5.24823e-05
4.1407e-05
5.12429e-05
5.11626e-05
5.21088e-05
4.28463e-05
5.35253e-05
5.40172e-05
5.97699e-05
3.63068e-05
3.6291e-05
3.6291e-05
3.63068e-05
3.6291e-05
3.6291e-05
3.6423e-05
3.6423e-05
3.6423e-05
3.6423e-05
3.6291e-05
3.6291e-05
3.63068e-05
3.6291e-05
3.6291e-05
3.63068e-05
3.59957e-05
3.42687e-05
3.58912e-05
3.58912e-05
3.43767e-05
3.43766e-05
3.59957e-05
3.42687e-05
3.58911e-05
3.58912e-05
3.43767e-05
3.43766e-05
3.58912e-05
3.43767e-05
3.43767e-05
3.59957e-05
3.42687e-05
3.58912e-05
3.43767e-05
3.43767e-05
3.42687e-05
3.39623e-05
3.22635e-05
3.38889e-05
3.38889e-05
3.24684e-05
3.24683e-05
3.39623e-05
3.22635e-05
3.38889e-05
3.38889e-05
3.24684e-05
3.24683e-05
3.38889e-05
3.24685e-05
3.24684e-05
3.39623e-05
3.22634e-05
3.38889e-05
3.24685e-05
3.24684e-05
3.22634e-05
3.19522e-05
3.02993e-05
3.20079e-05
3.20078e-05
3.06643e-05
3.06642e-05
3.19522e-05
3.02994e-05
3.2008e-05
3.20078e-05
3.06644e-05
3.06641e-05
3.20079e-05
3.06646e-05
3.06643e-05
3.19522e-05
3.02992e-05
3.2008e-05
3.06645e-05
3.06644e-05
3.02992e-05
2.99885e-05
2.84253e-05
3.0229e-05
3.02288e-05
2.89624e-05
2.89622e-05
2.99886e-05
2.84254e-05
3.02291e-05
3.02287e-05
2.89626e-05
2.89621e-05
3.02289e-05
2.89628e-05
2.89623e-05
2.99885e-05
2.84251e-05
3.02291e-05
2.89627e-05
2.89626e-05
2.84252e-05
2.81227e-05
2.6674e-05
2.85536e-05
2.85534e-05
2.7368e-05
2.73678e-05
2.81228e-05
2.66742e-05
2.85538e-05
2.85533e-05
2.73683e-05
2.73676e-05
2.85535e-05
2.73686e-05
2.73679e-05
2.81226e-05
2.66739e-05
2.85538e-05
2.73684e-05
2.73683e-05
2.66738e-05
2.63908e-05
2.50663e-05
2.69866e-05
2.69864e-05
2.58841e-05
2.58838e-05
2.6391e-05
2.50665e-05
2.69869e-05
2.69862e-05
2.58845e-05
2.58836e-05
2.69865e-05
2.58848e-05
2.5884e-05
2.63907e-05
2.50661e-05
2.69869e-05
2.58846e-05
2.58845e-05
2.50661e-05
2.48075e-05
2.36125e-05
2.55303e-05
2.55301e-05
2.45102e-05
2.45099e-05
2.48076e-05
2.36127e-05
2.55308e-05
2.55299e-05
2.45107e-05
2.45097e-05
2.55303e-05
2.45111e-05
2.45102e-05
2.48073e-05
2.36123e-05
2.55307e-05
2.45108e-05
2.45107e-05
2.36123e-05
2.33784e-05
2.23125e-05
2.41842e-05
2.41839e-05
2.32479e-05
2.32475e-05
2.33786e-05
2.23128e-05
2.41847e-05
2.41837e-05
2.32484e-05
2.32473e-05
2.41841e-05
2.32488e-05
2.32478e-05
2.33782e-05
2.23123e-05
2.41846e-05
2.32486e-05
2.32484e-05
2.23121e-05
2.21051e-05
2.11682e-05
2.29497e-05
2.29494e-05
2.20966e-05
2.20962e-05
2.2105e-05
2.11682e-05
2.29503e-05
2.29492e-05
2.20972e-05
2.2096e-05
2.29496e-05
2.20976e-05
2.20965e-05
2.21046e-05
2.11679e-05
2.29503e-05
2.20974e-05
2.20973e-05
2.11681e-05
2.09864e-05
2.01713e-05
2.18259e-05
2.18256e-05
2.10542e-05
2.10539e-05
2.09868e-05
2.01713e-05
2.18266e-05
2.18253e-05
2.1055e-05
2.10537e-05
2.18258e-05
2.10553e-05
2.10542e-05
2.09864e-05
2.01708e-05
2.18266e-05
2.10551e-05
2.1055e-05
2.01709e-05
2.00139e-05
1.9316e-05
2.08104e-05
2.08101e-05
2.01182e-05
2.01179e-05
2.00143e-05
1.93158e-05
2.08111e-05
2.08099e-05
2.01189e-05
2.01177e-05
2.08104e-05
2.01193e-05
2.01182e-05
2.0014e-05
1.93156e-05
2.08112e-05
2.01191e-05
2.0119e-05
1.93155e-05
1.91833e-05
1.85891e-05
1.99006e-05
1.99002e-05
1.92855e-05
1.92859e-05
1.91833e-05
1.85953e-05
1.99013e-05
1.99e-05
1.92863e-05
1.92855e-05
1.99006e-05
1.92873e-05
1.92856e-05
1.91836e-05
1.85946e-05
1.99014e-05
1.9287e-05
1.92865e-05
1.85912e-05
1.84906e-05
1.80103e-05
1.9094e-05
1.90936e-05
1.85561e-05
1.8556e-05
1.84944e-05
1.80111e-05
1.90949e-05
1.90932e-05
1.8557e-05
1.85557e-05
1.90938e-05
1.85575e-05
1.85567e-05
1.84932e-05
1.80087e-05
1.90948e-05
1.85572e-05
1.85575e-05
1.80128e-05
1.79478e-05
1.75718e-05
1.83892e-05
1.83888e-05
1.79257e-05
1.79273e-05
1.7947e-05
1.75747e-05
1.83901e-05
1.83889e-05
1.79265e-05
1.79255e-05
1.83896e-05
1.79284e-05
1.79268e-05
1.79464e-05
1.7569e-05
1.83904e-05
1.79268e-05
1.79278e-05
1.75828e-05
1.75367e-05
1.72744e-05
1.77837e-05
1.77839e-05
1.73928e-05
1.7399e-05
1.75448e-05
1.73166e-05
1.77846e-05
1.77825e-05
1.73936e-05
1.7399e-05
1.77842e-05
1.74001e-05
1.74026e-05
1.75406e-05
1.73214e-05
1.77852e-05
1.74002e-05
1.74034e-05
1.73392e-05
1.72563e-05
1.70945e-05
1.72755e-05
1.72887e-05
1.69531e-05
1.69624e-05
1.7321e-05
1.71375e-05
1.72762e-05
1.72862e-05
1.69538e-05
1.69606e-05
1.72863e-05
1.69633e-05
1.69544e-05
1.73182e-05
1.71394e-05
1.72871e-05
1.69615e-05
1.69552e-05
1.7096e-05
1.70896e-05
1.70677e-05
1.68573e-05
1.68604e-05
1.66115e-05
1.66079e-05
1.71252e-05
1.70314e-05
1.6858e-05
1.68587e-05
1.66122e-05
1.66058e-05
1.68555e-05
1.66084e-05
1.66032e-05
1.71239e-05
1.70294e-05
1.68563e-05
1.66064e-05
1.66039e-05
1.7037e-05
1.70758e-05
1.70714e-05
1.65387e-05
1.653e-05
1.63407e-05
1.63276e-05
1.70359e-05
1.69971e-05
1.65394e-05
1.65271e-05
1.63413e-05
1.63352e-05
1.65363e-05
1.63282e-05
1.6347e-05
1.70322e-05
1.70261e-05
1.6537e-05
1.63359e-05
1.63477e-05
1.70618e-05
1.71215e-05
1.72803e-05
1.62995e-05
1.62854e-05
1.61925e-05
1.61826e-05
1.70466e-05
1.72594e-05
1.63e-05
1.62922e-05
1.61932e-05
1.61892e-05
1.62809e-05
1.61828e-05
1.61644e-05
1.70807e-05
1.72775e-05
1.62815e-05
1.61895e-05
1.61651e-05
1.71973e-05
1.72893e-05
1.75167e-05
1.61386e-05
1.61404e-05
1.60971e-05
1.61193e-05
1.72927e-05
1.76296e-05
1.61392e-05
1.61576e-05
1.60975e-05
1.60997e-05
1.61627e-05
1.6119e-05
1.61142e-05
1.732e-05
1.75104e-05
1.61634e-05
1.60997e-05
1.61147e-05
1.7634e-05
1.76832e-05
1.80569e-05
1.61164e-05
1.61369e-05
1.61432e-05
1.61474e-05
1.77852e-05
1.80629e-05
1.61168e-05
1.61105e-05
1.61437e-05
1.61618e-05
1.61037e-05
1.61472e-05
1.6129e-05
1.76432e-05
1.81485e-05
1.61042e-05
1.61617e-05
1.61296e-05
1.79808e-05
1.81168e-05
1.86355e-05
1.61525e-05
1.61523e-05
1.62505e-05
1.62364e-05
1.81129e-05
1.85452e-05
1.61531e-05
1.61645e-05
1.62509e-05
1.62168e-05
1.6139e-05
1.62357e-05
1.62179e-05
1.81809e-05
1.84471e-05
1.61396e-05
1.62163e-05
1.62185e-05
1.84831e-05
1.87588e-05
1.92784e-05
1.62911e-05
1.62785e-05
1.6463e-05
1.64533e-05
1.86839e-05
1.92436e-05
1.62916e-05
1.62643e-05
1.64631e-05
1.6442e-05
1.62907e-05
1.64522e-05
1.64781e-05
1.86018e-05
1.92142e-05
1.62912e-05
1.64411e-05
1.64786e-05
1.94051e-05
1.93944e-05
1.99238e-05
1.65071e-05
1.65144e-05
1.67223e-05
1.67248e-05
1.93932e-05
1.99442e-05
1.65074e-05
1.65138e-05
1.67225e-05
1.67449e-05
1.6544e-05
1.67238e-05
1.67551e-05
1.9385e-05
2.00479e-05
1.65444e-05
1.67442e-05
1.67554e-05
2.00712e-05
2.01576e-05
2.09424e-05
1.68275e-05
1.68202e-05
1.71302e-05
1.71353e-05
2.01339e-05
2.09337e-05
1.68278e-05
1.68351e-05
1.71301e-05
1.7146e-05
1.6828e-05
1.71338e-05
1.71144e-05
2.02218e-05
2.09739e-05
1.68284e-05
1.71449e-05
1.71147e-05
2.08399e-05
2.11111e-05
2.18327e-05
1.72348e-05
1.72399e-05
1.759e-05
1.75768e-05
2.11088e-05
2.17861e-05
1.72349e-05
1.72526e-05
1.75899e-05
1.75777e-05
1.72188e-05
1.7575e-05
1.75854e-05
2.11545e-05
2.17805e-05
1.72191e-05
1.75761e-05
1.75855e-05
2.18093e-05
2.20235e-05
2.27871e-05
1.77066e-05
1.77106e-05
1.81263e-05
1.81389e-05
2.19991e-05
2.28508e-05
1.77065e-05
1.77041e-05
1.81259e-05
1.81278e-05
1.7711e-05
1.81367e-05
1.81242e-05
2.19726e-05
2.27996e-05
1.77111e-05
1.81259e-05
1.8124e-05
2.27938e-05
2.30107e-05
2.38135e-05
1.82678e-05
1.8283e-05
1.87363e-05
1.87273e-05
2.30538e-05
2.37865e-05
1.82675e-05
1.82704e-05
1.87354e-05
1.87278e-05
1.82694e-05
1.87249e-05
1.87368e-05
2.30061e-05
2.37954e-05
1.82692e-05
1.87258e-05
1.87362e-05
2.38259e-05
2.40516e-05
2.48655e-05
1.89047e-05
1.88927e-05
1.94117e-05
1.94195e-05
2.4008e-05
2.48956e-05
1.8904e-05
1.89017e-05
1.94107e-05
1.94282e-05
1.89005e-05
1.94168e-05
1.94175e-05
2.4038e-05
2.4922e-05
1.89e-05
1.94261e-05
1.94169e-05
2.48844e-05
2.50966e-05
2.59511e-05
1.95974e-05
1.96031e-05
2.01551e-05
2.01605e-05
2.51258e-05
2.59577e-05
1.95964e-05
1.96064e-05
2.01537e-05
2.01595e-05
1.95972e-05
2.01576e-05
2.01623e-05
2.51368e-05
2.59545e-05
1.95965e-05
2.01573e-05
2.01613e-05
2.5962e-05
2.61759e-05
2.70572e-05
2.03493e-05
2.03545e-05
2.0965e-05
2.09599e-05
2.6185e-05
2.70337e-05
2.0348e-05
2.03561e-05
2.09634e-05
2.09606e-05
2.03554e-05
2.09569e-05
2.09661e-05
2.61865e-05
2.70372e-05
2.03543e-05
2.09582e-05
2.09649e-05
2.7048e-05
2.72914e-05
2.81231e-05
2.11717e-05
2.1165e-05
2.18162e-05
2.18148e-05
2.72649e-05
2.81219e-05
2.11702e-05
2.11663e-05
2.18142e-05
2.18159e-05
2.11739e-05
2.18117e-05
2.18137e-05
2.72664e-05
2.81258e-05
2.11726e-05
2.18132e-05
2.18122e-05
2.81182e-05
2.83589e-05
2.91891e-05
2.20359e-05
2.20363e-05
2.2709e-05
2.2713e-05
2.8362e-05
2.91953e-05
2.20341e-05
2.20371e-05
2.27067e-05
2.27149e-05
2.20363e-05
2.271e-05
2.27121e-05
2.83648e-05
2.91993e-05
2.20347e-05
2.27123e-05
2.27102e-05
2.91962e-05
2.94274e-05
3.02527e-05
2.29417e-05
2.29445e-05
2.36487e-05
2.36466e-05
2.94303e-05
3.02469e-05
2.29395e-05
2.29459e-05
2.36462e-05
2.36482e-05
2.29432e-05
2.36434e-05
2.36471e-05
2.94338e-05
3.02495e-05
2.29413e-05
2.36455e-05
2.3645e-05
3.02467e-05
3.04795e-05
3.12889e-05
2.38852e-05
2.38852e-05
2.46121e-05
2.46126e-05
3.04778e-05
3.12876e-05
2.38828e-05
2.38868e-05
2.46094e-05
2.46143e-05
2.38843e-05
2.46095e-05
2.46165e-05
3.04804e-05
3.12914e-05
2.38822e-05
2.46117e-05
2.46141e-05
3.12991e-05
3.15221e-05
3.23112e-05
2.48601e-05
2.48593e-05
2.56078e-05
2.56074e-05
3.15179e-05
3.23095e-05
2.48575e-05
2.48614e-05
2.56049e-05
2.5609e-05
2.48645e-05
2.56043e-05
2.5608e-05
3.15218e-05
3.23122e-05
2.48621e-05
2.56064e-05
2.56055e-05
3.23074e-05
3.25343e-05
3.33073e-05
2.58582e-05
2.58579e-05
2.66178e-05
2.66187e-05
3.25337e-05
3.33081e-05
2.58555e-05
2.58593e-05
2.66148e-05
2.662e-05
2.58582e-05
2.66157e-05
2.66216e-05
3.25354e-05
3.33102e-05
2.58556e-05
2.66175e-05
2.66189e-05
3.3315e-05
3.353e-05
3.42868e-05
2.68737e-05
2.68743e-05
2.76446e-05
2.76431e-05
3.35299e-05
3.42819e-05
2.6871e-05
2.68758e-05
2.76416e-05
2.76455e-05
2.68776e-05
2.76402e-05
2.76467e-05
3.35321e-05
3.42872e-05
2.68749e-05
2.76433e-05
2.76439e-05
3.42871e-05
3.45034e-05
3.52355e-05
2.79026e-05
2.79014e-05
2.86769e-05
2.8677e-05
3.44999e-05
3.52349e-05
2.78998e-05
2.79042e-05
2.8674e-05
2.86783e-05
2.79046e-05
2.86743e-05
2.86786e-05
3.4505e-05
3.52359e-05
2.79019e-05
2.86762e-05
2.86757e-05
3.52363e-05
3.54462e-05
3.61675e-05
2.89348e-05
2.89346e-05
2.97121e-05
2.97122e-05
3.5445e-05
3.61662e-05
2.89321e-05
2.89357e-05
2.97092e-05
2.97142e-05
2.89369e-05
2.97096e-05
2.97152e-05
3.54457e-05
3.61696e-05
2.89341e-05
2.97125e-05
2.97124e-05
3.61703e-05
3.63749e-05
3.70631e-05
2.99717e-05
2.99717e-05
3.07445e-05
3.07449e-05
3.63735e-05
3.70644e-05
2.99692e-05
2.99734e-05
3.07419e-05
3.07465e-05
2.99747e-05
3.07425e-05
3.0748e-05
3.63759e-05
3.70666e-05
2.99718e-05
3.0745e-05
3.07452e-05
3.70661e-05
3.72632e-05
3.79461e-05
3.1001e-05
3.10021e-05
3.17709e-05
3.1769e-05
3.72651e-05
3.79385e-05
3.09986e-05
3.10037e-05
3.17684e-05
3.17709e-05
3.10043e-05
3.17667e-05
3.17733e-05
3.72673e-05
3.7942e-05
3.10015e-05
3.17696e-05
3.17705e-05
3.79473e-05
3.81418e-05
3.87978e-05
3.20266e-05
3.20245e-05
3.27875e-05
3.27886e-05
3.81354e-05
3.87998e-05
3.20244e-05
3.20266e-05
3.27852e-05
3.27899e-05
3.20296e-05
3.27864e-05
3.27921e-05
3.8139e-05
3.88009e-05
3.20269e-05
3.2789e-05
3.27894e-05
3.88007e-05
3.89882e-05
3.96259e-05
3.30394e-05
3.30403e-05
3.37884e-05
3.37875e-05
3.89879e-05
3.96231e-05
3.30373e-05
3.30415e-05
3.37861e-05
3.37889e-05
3.30432e-05
3.37854e-05
3.37909e-05
3.89888e-05
3.96261e-05
3.30406e-05
3.37881e-05
3.37883e-05
3.96286e-05
3.98085e-05
4.04207e-05
3.40352e-05
3.40344e-05
3.47675e-05
3.47686e-05
3.98074e-05
4.04211e-05
3.40332e-05
3.40362e-05
3.47654e-05
3.47703e-05
3.40383e-05
3.47667e-05
3.47714e-05
3.98105e-05
4.04232e-05
3.40358e-05
3.47698e-05
3.4769e-05
4.04215e-05
4.05995e-05
4.12132e-05
3.50096e-05
3.50107e-05
3.57325e-05
3.57313e-05
4.05994e-05
4.12087e-05
3.50077e-05
3.50121e-05
3.57304e-05
3.57321e-05
3.50131e-05
3.57295e-05
3.57355e-05
4.06007e-05
4.12102e-05
3.50108e-05
3.57317e-05
3.57332e-05
4.12162e-05
4.13879e-05
4.19589e-05
3.59715e-05
3.59702e-05
3.66745e-05
3.66748e-05
4.13842e-05
4.19587e-05
3.59697e-05
3.59711e-05
3.66725e-05
3.66762e-05
3.59749e-05
3.66732e-05
3.66781e-05
4.13859e-05
4.19612e-05
3.59726e-05
3.66762e-05
3.6676e-05
4.19602e-05
4.21232e-05
4.26769e-05
3.69034e-05
3.69038e-05
3.75794e-05
3.758e-05
4.21224e-05
4.26776e-05
3.69017e-05
3.69053e-05
3.75774e-05
3.75807e-05
3.69067e-05
3.75784e-05
3.75829e-05
4.21247e-05
4.26787e-05
3.69046e-05
3.75808e-05
3.75809e-05
4.26809e-05
4.2839e-05
4.34006e-05
3.78036e-05
3.78041e-05
3.84743e-05
3.84738e-05
4.28404e-05
4.33958e-05
3.78019e-05
3.78048e-05
3.84724e-05
3.84748e-05
3.78074e-05
3.84725e-05
3.84774e-05
4.28412e-05
4.33986e-05
3.78055e-05
3.84752e-05
3.84755e-05
4.34002e-05
4.356e-05
4.4073e-05
3.86947e-05
3.86937e-05
3.93393e-05
3.93378e-05
4.35546e-05
4.40717e-05
3.86931e-05
3.86949e-05
3.93376e-05
3.93381e-05
3.86973e-05
3.93365e-05
3.93419e-05
4.3557e-05
4.40717e-05
3.86955e-05
3.93385e-05
3.93403e-05
4.40769e-05
4.42187e-05
4.47123e-05
3.95477e-05
3.95474e-05
4.01592e-05
4.01625e-05
4.42193e-05
4.47165e-05
3.95462e-05
3.95474e-05
4.01574e-05
4.0163e-05
3.95515e-05
4.01616e-05
4.01642e-05
4.42194e-05
4.47187e-05
3.95499e-05
4.01639e-05
4.01627e-05
4.47153e-05
4.48599e-05
4.53636e-05
4.03623e-05
4.0365e-05
4.09721e-05
4.09693e-05
4.48622e-05
4.53555e-05
4.03608e-05
4.03659e-05
4.09705e-05
4.09702e-05
4.03662e-05
4.09683e-05
4.09727e-05
4.48644e-05
4.53571e-05
4.03647e-05
4.09709e-05
4.09714e-05
4.53627e-05
4.55053e-05
4.59647e-05
4.11715e-05
4.11679e-05
4.17486e-05
4.1749e-05
4.54975e-05
4.59673e-05
4.11702e-05
4.11686e-05
4.1747e-05
4.17493e-05
4.11727e-05
4.17482e-05
4.17534e-05
4.54988e-05
4.59685e-05
4.11714e-05
4.17503e-05
4.17521e-05
4.59702e-05
4.60971e-05
4.65419e-05
4.19361e-05
4.19382e-05
4.24905e-05
4.24919e-05
4.61011e-05
4.65414e-05
4.19347e-05
4.19385e-05
4.24891e-05
4.24919e-05
4.19412e-05
4.24913e-05
4.24931e-05
4.61021e-05
4.65418e-05
4.19399e-05
4.24931e-05
4.2492e-05
4.65425e-05
4.66723e-05
4.71085e-05
4.2672e-05
4.26722e-05
4.3208e-05
4.32075e-05
4.66708e-05
4.71065e-05
4.26708e-05
4.2672e-05
4.32067e-05
4.32075e-05
4.26741e-05
4.32069e-05
4.32106e-05
4.66709e-05
4.71083e-05
4.26729e-05
4.32087e-05
4.32095e-05
4.71105e-05
4.72344e-05
4.76467e-05
4.33847e-05
4.33846e-05
4.39003e-05
4.39e-05
4.72326e-05
4.76452e-05
4.33836e-05
4.33849e-05
4.38992e-05
4.39003e-05
4.33878e-05
4.38996e-05
4.39036e-05
4.72346e-05
4.76453e-05
4.33867e-05
4.39017e-05
4.39027e-05
4.76495e-05
4.77654e-05
4.81569e-05
4.40662e-05
4.40659e-05
4.45559e-05
4.45574e-05
4.77644e-05
4.81587e-05
4.40652e-05
4.40657e-05
4.45546e-05
4.45567e-05
4.40696e-05
4.4557e-05
4.45589e-05
4.77638e-05
4.81605e-05
4.40687e-05
4.45581e-05
4.45579e-05
4.8159e-05
4.82727e-05
4.86608e-05
4.47177e-05
4.47194e-05
4.5191e-05
4.5191e-05
4.82746e-05
4.86583e-05
4.47166e-05
4.47196e-05
4.519e-05
4.51921e-05
4.47206e-05
4.51908e-05
4.5193e-05
4.82773e-05
4.8659e-05
4.47196e-05
4.51938e-05
4.51924e-05
4.86609e-05
4.87734e-05
4.91281e-05
4.53447e-05
4.5344e-05
4.57981e-05
4.5797e-05
4.87699e-05
4.91261e-05
4.53439e-05
4.5344e-05
4.57969e-05
4.57944e-05
4.53467e-05
4.57967e-05
4.5802e-05
4.87691e-05
4.91249e-05
4.53462e-05
4.57961e-05
4.58009e-05
4.9134e-05
4.92289e-05
4.95618e-05
4.59434e-05
4.59431e-05
4.63578e-05
4.6361e-05
4.92286e-05
4.95663e-05
4.59424e-05
4.59416e-05
4.63569e-05
4.63632e-05
4.59484e-05
4.63614e-05
4.63613e-05
4.92289e-05
4.95703e-05
4.59473e-05
4.63653e-05
4.63608e-05
4.95616e-05
4.96689e-05
5.00366e-05
4.64968e-05
4.64998e-05
4.69303e-05
4.69285e-05
4.96724e-05
5.00305e-05
4.6496e-05
4.65015e-05
4.69293e-05
4.69258e-05
4.64984e-05
4.6928e-05
4.69301e-05
4.96749e-05
5.00267e-05
4.64981e-05
4.69272e-05
4.69295e-05
5.00367e-05
5.01339e-05
5.03844e-05
4.70701e-05
4.70669e-05
4.74336e-05
4.74336e-05
5.0127e-05
5.03847e-05
4.70693e-05
4.7064e-05
4.74327e-05
4.74343e-05
4.70716e-05
4.74343e-05
4.74394e-05
5.01237e-05
5.03894e-05
4.70708e-05
4.74369e-05
4.74386e-05
5.03898e-05
5.04647e-05
5.07821e-05
4.75447e-05
4.75465e-05
4.79075e-05
4.79097e-05
5.04671e-05
5.07853e-05
4.75441e-05
4.75483e-05
4.79069e-05
4.79094e-05
4.75498e-05
4.79099e-05
4.79095e-05
5.04723e-05
5.07829e-05
4.75492e-05
4.79113e-05
4.79094e-05
5.07847e-05
5.0885e-05
5.12067e-05
4.80387e-05
4.80406e-05
4.842e-05
4.84223e-05
5.08882e-05
5.12084e-05
4.80383e-05
4.80387e-05
4.84188e-05
4.84191e-05
4.80414e-05
4.8423e-05
4.84236e-05
5.08839e-05
5.12071e-05
4.80412e-05
4.84215e-05
4.84227e-05
5.12069e-05
5.12898e-05
5.15154e-05
4.85359e-05
4.85375e-05
4.88515e-05
4.8847e-05
5.12898e-05
5.15051e-05
4.85348e-05
4.85359e-05
4.8851e-05
4.88499e-05
4.85379e-05
4.8847e-05
4.88496e-05
5.12907e-05
5.15109e-05
4.8537e-05
4.88518e-05
4.88495e-05
5.15123e-05
5.15875e-05
5.18252e-05
4.89494e-05
4.89441e-05
4.92423e-05
4.92442e-05
5.15773e-05
5.18325e-05
4.89495e-05
4.89467e-05
4.9242e-05
4.92419e-05
4.89493e-05
4.92455e-05
4.92509e-05
5.15819e-05
5.1828e-05
4.89494e-05
4.92444e-05
4.92506e-05
5.18378e-05
5.19056e-05
5.21605e-05
4.93443e-05
4.93495e-05
4.96522e-05
4.9657e-05
5.1916e-05
5.21642e-05
4.93438e-05
4.9346e-05
4.96509e-05
4.96549e-05
4.93536e-05
4.96579e-05
4.96537e-05
5.19109e-05
5.21644e-05
4.93531e-05
4.96577e-05
4.9653e-05
5.21563e-05
5.22331e-05
5.24343e-05
4.97484e-05
4.97504e-05
5.00131e-05
5.00098e-05
5.22328e-05
5.24274e-05
4.97478e-05
4.97495e-05
5.00133e-05
5.00096e-05
4.97474e-05
5.00102e-05
5.00127e-05
5.22339e-05
5.24271e-05
4.97469e-05
5.00116e-05
5.00129e-05
5.24343e-05
5.25014e-05
5.27142e-05
5.00984e-05
5.00954e-05
5.03551e-05
5.03546e-05
5.24951e-05
5.27136e-05
5.00985e-05
5.00946e-05
5.03539e-05
5.03544e-05
5.01001e-05
5.03557e-05
5.03608e-05
5.24943e-05
5.2717e-05
5.01003e-05
5.03571e-05
5.03603e-05
5.272e-05
5.27797e-05
5.29421e-05
5.04394e-05
5.04396e-05
5.06711e-05
5.06748e-05
5.27805e-05
5.29492e-05
5.04386e-05
5.04408e-05
5.06718e-05
5.06768e-05
5.04445e-05
5.06758e-05
5.06718e-05
5.27855e-05
5.29505e-05
5.04439e-05
5.06793e-05
5.06722e-05
5.29408e-05
5.29952e-05
5.31792e-05
5.07397e-05
5.07448e-05
5.09479e-05
5.09486e-05
5.30029e-05
5.31751e-05
5.07409e-05
5.07447e-05
5.09465e-05
5.09401e-05
5.07406e-05
5.09498e-05
5.09514e-05
5.30008e-05
5.31626e-05
5.07414e-05
5.09435e-05
5.0951e-05
5.31821e-05
5.32512e-05
5.34694e-05
5.1028e-05
5.1025e-05
5.12752e-05
5.12708e-05
5.32428e-05
5.34661e-05
5.1026e-05
5.10162e-05
5.12744e-05
5.12729e-05
5.10313e-05
5.12717e-05
5.12769e-05
5.32317e-05
5.34766e-05
5.10299e-05
5.1274e-05
5.12757e-05
5.34713e-05
5.35199e-05
5.35984e-05
5.13447e-05
5.13438e-05
5.15008e-05
5.15096e-05
5.3522e-05
5.36106e-05
5.13453e-05
5.13498e-05
5.15025e-05
5.15124e-05
5.13473e-05
5.15115e-05
5.15078e-05
5.35338e-05
5.3611e-05
5.13475e-05
5.1517e-05
5.15098e-05
5.36058e-05
5.3631e-05
5.37384e-05
5.1544e-05
5.15522e-05
5.16799e-05
5.16728e-05
5.36398e-05
5.37214e-05
5.1545e-05
5.15507e-05
5.16792e-05
5.16705e-05
5.15511e-05
5.16742e-05
5.16784e-05
5.36372e-05
5.37229e-05
5.15525e-05
5.16722e-05
5.1677e-05
5.37299e-05
5.37931e-05
5.39501e-05
5.17336e-05
5.17236e-05
5.19156e-05
5.19176e-05
5.37744e-05
5.39625e-05
5.17334e-05
5.17247e-05
5.19149e-05
5.19149e-05
5.17296e-05
5.19179e-05
5.19164e-05
5.37779e-05
5.39529e-05
5.17283e-05
5.19171e-05
5.19168e-05
5.39557e-05
5.39955e-05
5.41006e-05
5.19733e-05
5.19815e-05
5.21073e-05
5.21134e-05
5.40125e-05
5.4103e-05
5.1972e-05
5.19736e-05
5.21065e-05
5.21068e-05
5.19784e-05
5.21158e-05
5.21124e-05
5.39997e-05
5.41009e-05
5.19786e-05
5.21105e-05
5.21114e-05
5.41016e-05
5.41471e-05
5.42467e-05
5.21507e-05
5.21494e-05
5.22859e-05
5.22793e-05
5.41403e-05
5.42401e-05
5.21516e-05
5.21511e-05
5.22887e-05
5.229e-05
5.21524e-05
5.22814e-05
5.22896e-05
5.41464e-05
5.42505e-05
5.21518e-05
5.22916e-05
5.22915e-05
5.42546e-05
5.42683e-05
5.42614e-05
5.23247e-05
5.23224e-05
5.2376e-05
5.2383e-05
5.4268e-05
5.42702e-05
5.23266e-05
5.2328e-05
5.23728e-05
5.23736e-05
5.23319e-05
5.23838e-05
5.23829e-05
5.42728e-05
5.42651e-05
5.23337e-05
5.2381e-05
5.2383e-05
5.42646e-05
5.42967e-05
5.45535e-05
5.23959e-05
5.23991e-05
5.25653e-05
5.25594e-05
5.43006e-05
5.45448e-05
5.23931e-05
5.23934e-05
5.2568e-05
5.25658e-05
5.23966e-05
5.25605e-05
5.25546e-05
5.43006e-05
5.45404e-05
5.23967e-05
5.25605e-05
5.25559e-05
5.45357e-05
5.46156e-05
5.45137e-05
5.26416e-05
5.26375e-05
5.26933e-05
5.26951e-05
5.46107e-05
5.45163e-05
5.26435e-05
5.2634e-05
5.26913e-05
5.26776e-05
5.2632e-05
5.26964e-05
5.26943e-05
5.45922e-05
5.44933e-05
5.26313e-05
5.26816e-05
5.26903e-05
5.45166e-05
5.44966e-05
5.43302e-05
5.26743e-05
5.26777e-05
5.25983e-05
5.26076e-05
5.45003e-05
5.43504e-05
5.26713e-05
5.26627e-05
5.26011e-05
5.26258e-05
5.26799e-05
5.26119e-05
5.26204e-05
5.4488e-05
5.44073e-05
5.26763e-05
5.26344e-05
5.26245e-05
5.43735e-05
5.43727e-05
5.47937e-05
5.26027e-05
5.26121e-05
5.28063e-05
5.2803e-05
5.43961e-05
5.47782e-05
5.2606e-05
5.26323e-05
5.28104e-05
5.27976e-05
5.26253e-05
5.28066e-05
5.28076e-05
5.4455e-05
5.47246e-05
5.263e-05
5.27976e-05
5.28127e-05
5.47689e-05
5.48802e-05
5.48299e-05
5.29092e-05
5.28972e-05
5.29863e-05
5.29688e-05
5.48541e-05
5.47955e-05
5.2906e-05
5.28614e-05
5.29771e-05
5.29434e-05
5.28886e-05
5.29631e-05
5.29516e-05
5.47754e-05
5.47906e-05
5.28879e-05
5.29418e-05
5.2944e-05
5.47757e-05
5.48201e-05
5.45501e-05
5.29741e-05
5.29578e-05
5.28367e-05
5.28454e-05
5.47871e-05
5.45822e-05
5.29665e-05
5.29423e-05
5.28451e-05
5.28875e-05
5.29444e-05
5.28491e-05
5.28538e-05
5.47975e-05
5.46526e-05
5.29372e-05
5.28885e-05
5.28551e-05
5.45949e-05
5.45446e-05
5.44509e-05
5.2789e-05
5.28142e-05
5.27486e-05
5.27915e-05
5.45861e-05
5.45489e-05
5.27997e-05
5.28469e-05
5.27555e-05
5.2776e-05
5.28218e-05
5.27993e-05
5.27962e-05
5.46441e-05
5.4483e-05
5.28256e-05
5.27887e-05
5.28012e-05
5.45419e-05
5.4508e-05
5.51957e-05
5.27653e-05
5.28048e-05
5.31059e-05
5.30543e-05
5.45982e-05
5.50519e-05
5.277e-05
5.27825e-05
5.30906e-05
5.30184e-05
5.28111e-05
5.30494e-05
5.30501e-05
5.45152e-05
5.50336e-05
5.28155e-05
5.30186e-05
5.30476e-05
5.50394e-05
5.52474e-05
5.45485e-05
5.31626e-05
5.30921e-05
5.30294e-05
5.29764e-05
5.50874e-05
5.45108e-05
5.31517e-05
5.30972e-05
5.304e-05
5.3059e-05
5.30826e-05
5.29639e-05
5.29814e-05
5.51044e-05
5.47076e-05
5.30799e-05
5.30473e-05
5.29826e-05
5.45558e-05
5.44238e-05
5.426e-05
5.28445e-05
5.28498e-05
5.26433e-05
5.2738e-05
5.44474e-05
5.45026e-05
5.28648e-05
5.29355e-05
5.2642e-05
5.26272e-05
5.28534e-05
5.27519e-05
5.26941e-05
5.46092e-05
5.4178e-05
5.28551e-05
5.26379e-05
5.26847e-05
5.43375e-05
5.44066e-05
5.48403e-05
5.26593e-05
5.27517e-05
5.28632e-05
5.28495e-05
5.46198e-05
5.47462e-05
5.26527e-05
5.26296e-05
5.284e-05
5.28764e-05
5.27035e-05
5.28388e-05
5.28731e-05
5.4239e-05
5.50093e-05
5.2694e-05
5.28998e-05
5.28922e-05
5.48809e-05
5.48661e-05
5.49316e-05
5.29131e-05
5.28722e-05
5.30304e-05
5.29759e-05
5.47538e-05
5.48521e-05
5.2904e-05
5.29984e-05
5.30446e-05
5.30859e-05
5.29302e-05
5.29668e-05
5.30074e-05
5.51119e-05
5.48839e-05
5.29639e-05
5.30978e-05
5.30335e-05
5.48536e-05
5.50401e-05
5.5531e-05
5.31219e-05
5.30498e-05
5.33075e-05
5.32205e-05
5.49451e-05
5.53205e-05
5.31381e-05
5.30708e-05
5.3304e-05
5.3053e-05
5.30391e-05
5.32239e-05
5.316e-05
5.48587e-05
5.49539e-05
5.30486e-05
5.3e-05
5.31004e-05
5.52103e-05
5.54993e-05
5.2504e-05
5.32512e-05
5.31839e-05
5.19955e-05
5.22466e-05
5.5311e-05
5.30833e-05
5.32468e-05
5.30164e-05
5.2011e-05
5.23659e-05
5.3123e-05
5.22729e-05
5.2234e-05
5.49662e-05
5.34267e-05
5.30582e-05
5.23712e-05
5.22084e-05
5.2991e-05
5.2006e-05
5.17172e-05
5.13315e-05
5.16638e-05
5.08539e-05
5.10789e-05
5.26616e-05
5.20906e-05
5.13347e-05
5.1755e-05
5.08205e-05
5.09467e-05
5.15729e-05
5.10592e-05
5.08874e-05
5.29443e-05
5.17036e-05
5.15845e-05
5.10223e-05
5.09373e-05
5.15945e-05
5.25262e-05
5.91852e-05
5.11364e-05
5.12748e-05
5.448e-05
5.38564e-05
5.26563e-05
5.77446e-05
5.10893e-05
5.10967e-05
5.44402e-05
5.40587e-05
5.10904e-05
5.37993e-05
5.43899e-05
5.20262e-05
5.8807e-05
5.1137e-05
5.40275e-05
5.4398e-05
5.95152e-05
5.93685e-05
5.42647e-05
5.35508e-05
5.79045e-05
5.4274e-05
5.40502e-05
4.24816e-05
4.26839e-05
4.28203e-05
5.42983e-05
5.92699e-05
5.43135e-05
3.73773e-05
3.73765e-05
3.7377e-05
3.7377e-05
3.73701e-05
3.73777e-05
3.73043e-05
3.73768e-05
3.73702e-05
3.73777e-05
3.73768e-05
3.73043e-05
3.73741e-05
3.72959e-05
3.72959e-05
3.58797e-05
4.08723e-05
3.66034e-05
4.51463e-05
5.51147e-05
6.48951e-05
3.58803e-05
4.08713e-05
3.66034e-05
4.51464e-05
3.58932e-05
3.58933e-05
3.58932e-05
3.44005e-05
3.44005e-05
3.44005e-05
3.44005e-05
3.52758e-05
3.56384e-05
3.58929e-05
3.53771e-05
3.60476e-05
3.42365e-05
3.53822e-05
5.51168e-05
6.48993e-05
3.52758e-05
3.58929e-05
3.5638e-05
3.53771e-05
3.60475e-05
3.53822e-05
3.42375e-05
3.65972e-05
3.65977e-05
3.5279e-05
3.40641e-05
3.40632e-05
3.39657e-05
5.13541e-05
3.46793e-05
5.46244e-05
7.65449e-05
8.08613e-05
3.39681e-05
5.13546e-05
3.46789e-05
5.46248e-05
3.39296e-05
3.39297e-05
3.39297e-05
3.25854e-05
3.25854e-05
3.25855e-05