/*--------------------------------*- C++ -*----------------------------------*\
| =========                 |                                                 |
| \\      /  F ield         | OpenFOAM: The Open Source CFD Toolbox           |
|  \\    /   O peration     | Version:  v2012                                 |
|   \\  /    A nd           | Website:  www.openfoam.com                      |
|    \\/     M anipulation  |                                                 |
\*---------------------------------------------------------------------------*/
FoamFile
{
    version     2.0;
    format      ascii;
    class       volScalarField;
    location    "875";
    object      nut;
}
// * * * * * * * * * * * * * * * * * * * * * * * * * * * * * * * * * * * * * //

dimensions      [0 2 -1 0 0 0 0];


internalField   nonuniform List<scalar> 
171728
(
0.000233973
0.000233116
0.000233116
0.000233423
0.000232532
0.000227802
0.000227801
0.000223867
0.000230516
0.00022032
0.000220318
0.000209109
0.000227799
0.000211665
0.000211661
0.000193785
0.000224433
0.00020265
0.000202644
0.000179709
0.000220552
0.000193772
0.000193765
0.00016734
0.000216304
0.000185275
0.000185268
0.000156587
0.00021182
0.000177234
0.000177226
0.000147206
0.000207207
0.000169688
0.00016968
0.000138952
0.000202545
0.000162612
0.000162603
0.000131616
0.00019789
0.000155951
0.000155942
0.000124957
0.000193276
0.000149651
0.000149642
0.000118843
0.000188683
0.000143667
0.000143658
0.000113188
0.000184154
0.000137977
0.000137973
0.000108156
0.000179716
0.000132545
0.000132522
0.000103557
0.000175362
0.000127547
0.000127499
9.98742e-05
0.000171061
0.000122363
0.000122329
9.49048e-05
0.000166827
0.000117505
0.000117453
9.14816e-05
0.000162609
0.000112835
0.000112917
8.75493e-05
0.000158398
0.000108609
0.000108825
8.56496e-05
0.000154281
0.000105409
0.000105054
8.37333e-05
0.000150141
0.000101694
0.000101834
8.19584e-05
0.000146063
9.87239e-05
9.85393e-05
8.18992e-05
0.000142029
9.65069e-05
9.64862e-05
8.30858e-05
0.000138083
9.46089e-05
9.47648e-05
8.25563e-05
0.000134296
9.35536e-05
9.36799e-05
8.32199e-05
0.000130614
9.268e-05
9.25986e-05
8.49232e-05
0.000127137
9.2551e-05
9.24108e-05
8.65601e-05
0.000123894
9.25295e-05
9.26055e-05
8.8539e-05
0.00012089
9.32657e-05
9.32829e-05
9.07109e-05
0.000118165
9.41944e-05
9.41949e-05
9.30713e-05
0.000115788
9.55075e-05
9.55062e-05
9.55757e-05
0.000113734
9.72386e-05
9.72329e-05
9.80708e-05
0.000112017
9.91954e-05
9.91938e-05
0.000100715
0.000110682
0.000101358
0.000101358
0.000103328
0.000109694
0.000103762
0.000103765
0.000106147
0.000109092
0.000106349
0.000106348
0.000108756
0.000108842
0.000109091
0.000109089
0.000111554
0.00010896
0.000111949
0.000111959
0.000114253
0.000109421
0.000114908
0.000114904
0.000116943
0.000110216
0.000117972
0.000117974
0.000119693
0.000111338
0.000121074
0.000121074
0.000122312
0.000112752
0.000124216
0.000124222
0.000125013
0.00011447
0.00012743
0.00012743
0.000127616
0.000116441
0.000130607
0.000130611
0.000130219
0.000118651
0.000133792
0.000133794
0.000132707
0.000121089
0.000136996
0.000136995
0.00013534
0.000123763
0.00014016
0.000140164
0.000137718
0.000126541
0.000143231
0.00014323
0.000140113
0.000129536
0.000146383
0.000146387
0.000142604
0.000132691
0.000149427
0.000149423
0.000144867
0.000135858
0.00015236
0.000152364
0.00014705
0.000139214
0.000155346
0.000155347
0.000149394
0.000142627
0.000158238
0.000158237
0.000151512
0.000146076
0.000161016
0.000161012
0.000153557
0.000149563
0.000163789
0.00016379
0.000155658
0.000153129
0.000166477
0.000166474
0.000157634
0.000156643
0.000169101
0.000169102
0.000159529
0.00016021
0.000171655
0.000171655
0.000161468
0.000163749
0.000174155
0.000174144
0.000163239
0.000167203
0.000176478
0.000176488
0.000164894
0.000170737
0.000179002
0.000178982
0.000166873
0.000174134
0.000181004
0.000181017
0.000168029
0.000177372
0.000183242
0.000183227
0.00016984
0.000180882
0.000185625
0.000185614
0.000171587
0.000184139
0.000187421
0.000187444
0.000172734
0.000187151
0.000189357
0.000189327
0.000174157
0.000190289
0.000191341
0.000191336
0.00017551
0.000193314
0.000193031
0.000193028
0.000176725
0.000196174
0.000194797
0.000194804
0.000178
0.000199018
0.000196401
0.000196406
0.000178899
0.000201647
0.000197892
0.000197818
0.000180175
0.000204467
0.000199747
0.000199794
0.000181562
0.000206955
0.000200909
0.000200905
0.000181984
0.00020911
0.000201837
0.000201826
0.000182682
0.000211448
0.00020352
0.000203481
0.000183924
0.000213717
0.00020458
0.00020457
0.000184661
0.000215917
0.000205835
0.000205881
0.000185465
0.000217707
0.000206311
0.000206306
0.000185474
0.000219623
0.000208154
0.000208053
0.000187437
0.000221718
0.00020858
0.00020852
0.00018687
0.000222326
0.000208243
0.000208431
0.000186347
0.000224568
0.000210708
0.000210351
0.000189285
0.000226672
0.00021122
0.000211129
0.000188878
0.000226661
0.000210213
0.000210457
0.000187501
0.000227769
0.00021107
0.000210984
0.000188284
0.000230986
0.00021396
0.000214016
0.000192154
0.000231007
0.000212099
0.000212203
0.000187513
0.000229231
0.000210489
0.000209595
0.000186728
0.000232577
0.000213466
0.000216
0.000192244
0.000239414
0.000219999
0.000219034
0.000195269
0.000233594
0.000215082
0.000211093
0.000191957
0.00021804
0.000195416
0.000197468
0.000167471
0.000228267
0.000205393
0.000206575
0.000174896
0.000273057
0.000257579
0.000258308
0.000256581
0.000234266
0.000234448
0.000234449
0.000234267
0.000234448
0.000234449
0.000234274
0.000234274
0.000234274
0.000234274
0.000234448
0.000234448
0.000234266
0.000234448
0.000234448
0.000234266
0.000233423
0.000226204
0.000233116
0.000233114
0.000229361
0.000229357
0.000233423
0.000226205
0.000233114
0.000233114
0.000229359
0.000229356
0.000233116
0.000229364
0.000229361
0.000233423
0.000226202
0.000233114
0.000229363
0.000229359
0.000226202
0.000223867
0.00021223
0.000227799
0.000227794
0.000222332
0.000222326
0.000223868
0.000212234
0.000227797
0.000227792
0.000222332
0.000222323
0.000227798
0.000222339
0.000222331
0.000223866
0.000212227
0.000227797
0.000222336
0.000222331
0.000212228
0.000209111
0.00019706
0.000220313
0.000220307
0.000213879
0.000213874
0.000209112
0.000197066
0.000220314
0.000220304
0.000213883
0.000213869
0.000220311
0.00021389
0.000213877
0.000209108
0.000197057
0.000220313
0.000213886
0.000213882
0.000197057
0.000193788
0.000182876
0.000211654
0.000211648
0.00020489
0.000204884
0.000193792
0.000182882
0.000211658
0.000211643
0.000204898
0.000204879
0.000211651
0.000204905
0.000204887
0.000193784
0.000182871
0.000211657
0.000204899
0.000204896
0.000182873
0.000179712
0.000170268
0.000202634
0.000202628
0.000195943
0.000195938
0.000179717
0.000170274
0.000202643
0.000202622
0.000195954
0.000195931
0.000202631
0.000195962
0.00019594
0.000179709
0.000170263
0.000202641
0.000195955
0.000195953
0.000170263
0.000167344
0.000159242
0.000193753
0.000193747
0.000187336
0.000187331
0.000167349
0.000159249
0.000193765
0.00019374
0.000187351
0.000187324
0.000193749
0.000187359
0.000187334
0.000167339
0.000159238
0.000193764
0.000187351
0.00018735
0.000159238
0.000156592
0.000149613
0.000185253
0.000185247
0.000179173
0.000179168
0.000156597
0.00014962
0.000185268
0.00018524
0.000179191
0.00017916
0.000185249
0.000179198
0.00017917
0.000156587
0.000149608
0.000185267
0.00017919
0.00017919
0.000149608
0.000147211
0.000141108
0.000177209
0.000177203
0.000171501
0.000171496
0.000147217
0.000141115
0.000177227
0.000177196
0.000171522
0.000171488
0.000177205
0.000171529
0.000171499
0.000147207
0.000141102
0.000177225
0.00017152
0.000171521
0.0001411
0.000138958
0.000133548
0.00016966
0.000169655
0.00016431
0.000164304
0.000138961
0.000133553
0.000169682
0.000169648
0.000164333
0.000164297
0.000169658
0.00016434
0.000164308
0.000138949
0.000133542
0.000169681
0.000164331
0.000164332
0.000133544
0.000131621
0.000126692
0.000162581
0.000162576
0.000157547
0.000157542
0.00013163
0.000126696
0.000162605
0.000162568
0.000157572
0.000157535
0.000162579
0.00015758
0.000157546
0.000131619
0.000126682
0.000162604
0.000157571
0.000157573
0.000126685
0.000124963
0.000120379
0.000155918
0.000155914
0.000151161
0.000151156
0.000124971
0.000120381
0.000155943
0.000155905
0.000151186
0.000151149
0.000155917
0.000151195
0.000151161
0.00012496
0.000120371
0.000155944
0.000151187
0.000151187
0.00012037
0.000118841
0.000114408
0.000149618
0.000149611
0.000145095
0.000145101
0.000118846
0.00011449
0.000149644
0.000149604
0.000145123
0.00014509
0.000149617
0.000145141
0.000145097
0.000118841
0.000114473
0.000149644
0.00014513
0.000145127
0.000114432
0.000113184
0.000108987
0.000143636
0.000143627
0.000139342
0.00013934
0.000113233
0.000109001
0.000143664
0.000143617
0.000139373
0.00013933
0.000143632
0.000139384
0.000139352
0.000113211
0.000108962
0.000143662
0.000139373
0.000139381
0.000109013
0.000108114
0.000104087
0.000137942
0.000137933
0.00013384
0.000133862
0.000108107
0.000104126
0.000137972
0.00013793
0.00013387
0.000133829
0.000137948
0.000133905
0.000133859
0.000108091
0.000104048
0.000137976
0.000133872
0.000133889
0.000104213
0.000103417
9.978e-05
0.000132505
0.000132503
0.000128579
0.000128665
0.000103518
0.000100274
0.000132534
0.000132478
0.000128606
0.00012866
0.000132513
0.000128713
0.000128725
0.000103459
0.000100319
0.000132544
0.000128704
0.000128754
0.000100528
9.90824e-05
9.57528e-05
0.000127308
0.000127499
0.000123519
0.000123649
9.9833e-05
9.6244e-05
0.000127335
0.000127455
0.000123545
0.000123615
0.00012747
0.000123698
0.000123542
9.979e-05
9.62518e-05
0.000127499
0.000123661
0.000123569
9.57677e-05
9.49966e-05
9.24625e-05
0.000122276
0.000122316
0.000118754
0.000118696
9.54009e-05
9.2076e-05
0.000122302
0.000122284
0.000118779
0.000118657
0.000122255
0.000118741
0.000118639
9.53751e-05
9.20409e-05
0.000122282
0.000118701
0.000118665
9.21261e-05
9.16692e-05
8.86666e-05
0.000117588
0.000117459
0.000113975
0.000113788
9.12493e-05
8.79067e-05
0.000117613
0.000117408
0.000114
0.000113882
0.000117557
0.000113836
0.000114067
9.11977e-05
8.81924e-05
0.000117584
0.00011393
0.000114093
8.85618e-05
8.81738e-05
8.6275e-05
0.000112991
0.000112789
0.000109923
0.000109784
8.74139e-05
8.60765e-05
0.000113013
0.000112872
0.000109948
0.000109861
0.000112737
0.00010983
0.000109549
8.77502e-05
8.62406e-05
0.000112762
0.000109906
0.000109574
8.54435e-05
8.52455e-05
8.354e-05
0.000108542
0.000108559
0.000105717
0.000105998
8.5287e-05
8.46317e-05
0.000108565
0.000108779
0.000105737
0.000105729
0.000108872
0.000106043
0.000105945
8.55419e-05
8.34755e-05
0.000108897
0.000105774
0.000105967
8.46566e-05
8.39212e-05
8.31506e-05
0.000105109
0.000105365
0.000102586
0.000102626
8.4903e-05
8.32148e-05
0.000105127
0.000105008
0.000102606
0.000102797
0.000104946
0.000102673
0.000102409
8.35379e-05
8.39873e-05
0.000104968
0.000102842
0.000102431
8.24451e-05
8.24278e-05
8.25997e-05
0.000101666
0.000101647
9.95379e-05
9.93473e-05
8.24014e-05
8.18103e-05
0.000101684
0.00010179
9.95544e-05
9.90967e-05
0.000101497
9.93921e-05
9.91395e-05
8.30051e-05
8.093e-05
0.00010152
9.91392e-05
9.91614e-05
8.12474e-05
8.23675e-05
8.22284e-05
9.88504e-05
9.86795e-05
9.71767e-05
9.70425e-05
8.17199e-05
8.19397e-05
9.88679e-05
9.84955e-05
9.71898e-05
9.68976e-05
9.88447e-05
9.70838e-05
9.73543e-05
8.0987e-05
8.16718e-05
9.88661e-05
9.69364e-05
9.73746e-05
8.33048e-05
8.18706e-05
8.16137e-05
9.63994e-05
9.64647e-05
9.48596e-05
9.48668e-05
8.18685e-05
8.17899e-05
9.64131e-05
9.64461e-05
9.48734e-05
9.50843e-05
9.68284e-05
9.49112e-05
9.52296e-05
8.17837e-05
8.26248e-05
9.68474e-05
9.51262e-05
9.5247e-05
8.28172e-05
8.21792e-05
8.3822e-05
9.46693e-05
9.45662e-05
9.37848e-05
9.38199e-05
8.19953e-05
8.37616e-05
9.46838e-05
9.47222e-05
9.37966e-05
9.39259e-05
9.46727e-05
9.386e-05
9.36089e-05
8.26959e-05
8.40645e-05
9.46896e-05
9.39647e-05
9.36254e-05
8.29945e-05
8.38039e-05
8.48072e-05
9.34814e-05
9.35156e-05
9.28815e-05
9.27218e-05
8.37942e-05
8.4455e-05
9.34942e-05
9.36422e-05
9.28944e-05
9.27199e-05
9.33042e-05
9.27593e-05
9.28297e-05
8.41402e-05
8.43922e-05
9.33202e-05
9.27543e-05
9.28446e-05
8.46158e-05
8.49336e-05
8.62028e-05
9.26225e-05
9.26444e-05
9.24581e-05
9.25662e-05
8.47541e-05
8.66945e-05
9.26343e-05
9.25643e-05
9.24688e-05
9.24416e-05
9.26648e-05
9.26003e-05
9.24325e-05
8.45326e-05
8.62866e-05
9.2679e-05
9.24732e-05
9.24445e-05
8.62424e-05
8.65571e-05
8.81027e-05
9.23833e-05
9.25173e-05
9.25044e-05
9.23952e-05
8.68903e-05
8.79124e-05
9.23943e-05
9.23785e-05
9.2511e-05
9.23892e-05
9.23953e-05
9.2428e-05
9.25046e-05
8.65133e-05
8.79586e-05
9.24069e-05
9.24202e-05
9.25137e-05
8.8184e-05
8.85503e-05
9.02004e-05
9.26349e-05
9.24976e-05
9.29574e-05
9.30121e-05
8.82386e-05
9.04282e-05
9.26431e-05
9.25741e-05
9.29653e-05
9.30851e-05
9.25891e-05
9.30428e-05
9.30075e-05
8.84413e-05
9.05997e-05
9.25989e-05
9.3114e-05
9.3018e-05
9.03257e-05
9.05921e-05
9.25894e-05
9.3199e-05
9.32359e-05
9.3858e-05
9.38894e-05
9.08117e-05
9.26463e-05
9.32066e-05
9.32543e-05
9.38639e-05
9.387e-05
9.31917e-05
9.39181e-05
9.39198e-05
9.0873e-05
9.26027e-05
9.32015e-05
9.38975e-05
9.39273e-05
9.26554e-05
9.29396e-05
9.52054e-05
9.41339e-05
9.41659e-05
9.52058e-05
9.51419e-05
9.30132e-05
9.50495e-05
9.41394e-05
9.41672e-05
9.52113e-05
9.51375e-05
9.41845e-05
9.51688e-05
9.52089e-05
9.30061e-05
9.50533e-05
9.41917e-05
9.51632e-05
9.52162e-05
9.51284e-05
9.56321e-05
9.76481e-05
9.55579e-05
9.54811e-05
9.67875e-05
9.67593e-05
9.54554e-05
9.76502e-05
9.55638e-05
9.54807e-05
9.67908e-05
9.67575e-05
9.55713e-05
9.67845e-05
9.67589e-05
9.54477e-05
9.76557e-05
9.55778e-05
9.67806e-05
9.67646e-05
9.76013e-05
9.81024e-05
0.000100222
9.72264e-05
9.72144e-05
9.86301e-05
9.86503e-05
9.81336e-05
0.000100276
9.72306e-05
9.72096e-05
9.86329e-05
9.86559e-05
9.72229e-05
9.86759e-05
9.86498e-05
9.81337e-05
0.000100282
9.72285e-05
9.86782e-05
9.86541e-05
0.000100259
0.000100714
0.000102924
9.91604e-05
9.91701e-05
0.000100802
0.00010077
0.000100744
0.000102895
9.91631e-05
9.9171e-05
0.000100804
0.000100773
9.91659e-05
0.000100793
0.00010078
0.000100749
0.000102892
9.91701e-05
0.000100794
0.000100784
0.000102872
0.000103361
0.000105592
0.000101348
0.000101334
0.000103123
0.000103114
0.000103359
0.000105594
0.000101351
0.000101337
0.000103124
0.000103116
0.000101333
0.000103137
0.00010315
0.000103358
0.000105598
0.000101336
0.000103137
0.000103153
0.000105648
0.0001061
0.000108318
0.000103758
0.000103738
0.000105689
0.000105673
0.000106082
0.000108319
0.000103759
0.000103744
0.00010569
0.000105676
0.000103786
0.000105696
0.000105681
0.000106088
0.000108315
0.000103788
0.000105696
0.000105683
0.000108281
0.000108788
0.000111024
0.000106341
0.000106327
0.000108373
0.000108369
0.000108794
0.00011104
0.000106343
0.000106328
0.000108374
0.000108368
0.000106332
0.000108391
0.000108393
0.000108787
0.000111034
0.000106334
0.000108388
0.000108395
0.000111063
0.000111521
0.000113773
0.000109076
0.000109069
0.00011122
0.000111197
0.000111531
0.000113751
0.000109077
0.00010907
0.000111221
0.000111206
0.000109096
0.000111219
0.000111226
0.000111527
0.000113766
0.000109098
0.000111225
0.000111227
0.000113764
0.00011426
0.000116467
0.000111947
0.000111928
0.000114156
0.000114147
0.000114247
0.000116474
0.000111949
0.00011194
0.000114158
0.000114146
0.000111953
0.000114168
0.000114157
0.000114263
0.000116461
0.000111954
0.000114165
0.000114159
0.000116461
0.000116946
0.0001192
0.000114899
0.000114888
0.000117184
0.000117177
0.000116948
0.000119202
0.000114901
0.000114885
0.000117186
0.000117182
0.000114903
0.000117197
0.000117196
0.000116935
0.000119206
0.000114905
0.000117201
0.000117198
0.000119208
0.000119688
0.000121839
0.000117961
0.000117952
0.000120278
0.000120272
0.000119689
0.000121857
0.000117963
0.000117955
0.00012028
0.000120273
0.000117971
0.000120292
0.000120291
0.000119688
0.000121854
0.000117972
0.000120293
0.000120292
0.000121848
0.000122308
0.000124533
0.000121053
0.000121054
0.000123424
0.000123402
0.00012233
0.000124495
0.000121056
0.000121055
0.000123426
0.000123406
0.000121065
0.000123421
0.000123428
0.000122329
0.0001245
0.000121067
0.000123425
0.00012343
0.000124531
0.000125003
0.000127159
0.000124221
0.000124197
0.000126612
0.000126613
0.000124972
0.000127183
0.000124225
0.000124203
0.000126615
0.000126613
0.00012423
0.000126632
0.000126632
0.000124979
0.000127174
0.000124231
0.000126633
0.000126634
0.000127168
0.000127623
0.000129761
0.000127412
0.000127411
0.000129808
0.000129794
0.000127631
0.000129754
0.000127416
0.00012741
0.000129811
0.000129795
0.000127425
0.000129813
0.000129812
0.000127621
0.000129757
0.000127428
0.000129814
0.000129814
0.000129769
0.000130201
0.000132272
0.000130602
0.000130589
0.000132977
0.000132978
0.000130204
0.000132285
0.000130606
0.000130593
0.000132981
0.000132981
0.000130611
0.000132997
0.00013299
0.000130209
0.000132284
0.000130613
0.000133002
0.000132994
0.000132268
0.000132714
0.00013489
0.000133771
0.000133773
0.000136185
0.00013617
0.000132723
0.000134871
0.000133775
0.000133773
0.000136188
0.000136166
0.000133782
0.000136188
0.000136192
0.000132717
0.000134866
0.000133785
0.000136186
0.000136196
0.0001349
0.000135331
0.000137322
0.000136994
0.000136978
0.000139372
0.00013937
0.000135317
0.000137331
0.000136998
0.000136975
0.000139377
0.000139371
0.000137004
0.000139388
0.000139384
0.000135313
0.000137333
0.000137007
0.000139392
0.000139389
0.000137321
0.00013772
0.000139688
0.000140144
0.000140142
0.000142438
0.000142437
0.000137724
0.000139703
0.000140149
0.000140143
0.000142442
0.000142434
0.000140153
0.000142455
0.000142449
0.000137725
0.000139695
0.000140158
0.000142454
0.000142454
0.000139705
0.000140096
0.000142204
0.000143214
0.000143213
0.000145588
0.00014558
0.000140115
0.000142183
0.000143219
0.00014321
0.000145593
0.00014558
0.000143228
0.000145598
0.000145597
0.000140107
0.000142187
0.000143233
0.000145602
0.000145602
0.000142193
0.000142618
0.000144495
0.000146377
0.000146365
0.000148679
0.000148663
0.000142592
0.000144496
0.000146383
0.000146366
0.000148685
0.000148657
0.000146381
0.00014868
0.000148684
0.000142594
0.000144482
0.000146386
0.000148677
0.00014869
0.000144511
0.000144842
0.000146673
0.000149417
0.00014941
0.000151586
0.000151607
0.000144855
0.00014671
0.000149424
0.000149403
0.000151591
0.000151604
0.000149431
0.000151626
0.00015161
0.000144842
0.000146712
0.000149437
0.000151627
0.000151616
0.000146683
0.000147053
0.000149037
0.000152324
0.000152341
0.000154608
0.000154584
0.000147078
0.000148992
0.00015233
0.000152341
0.000154615
0.000154583
0.000152339
0.000154601
0.000154599
0.00014708
0.000148989
0.000152345
0.000154604
0.000154606
0.000149021
0.0001494
0.000151166
0.00015536
0.00015533
0.000157508
0.000157508
0.000149358
0.000151193
0.000155368
0.000155327
0.000157515
0.000157503
0.000155355
0.000157526
0.000157531
0.000149354
0.000151188
0.000155363
0.000157525
0.000157538
0.000151193
0.000151488
0.000153236
0.000158206
0.000158219
0.000160305
0.000160312
0.000151522
0.000153242
0.000158213
0.000158214
0.000160312
0.000160306
0.000158231
0.00016033
0.000160311
0.000151517
0.000153231
0.000158238
0.000160328
0.000160319
0.00015323
0.000153566
0.000155334
0.000161
0.000160998
0.000163078
0.000163072
0.000153564
0.00015533
0.000161008
0.00016099
0.000163086
0.000163065
0.000161002
0.00016309
0.000163085
0.000153553
0.000155329
0.00016101
0.000163088
0.000163093
0.000155338
0.000155652
0.000157336
0.000163775
0.000163771
0.000165812
0.000165806
0.000155649
0.000157335
0.000163784
0.000163767
0.000165821
0.000165802
0.000163784
0.000165825
0.000165823
0.00015565
0.000157323
0.000163793
0.000165826
0.000165833
0.000157344
0.000157626
0.000159241
0.000166464
0.000166458
0.000168415
0.000168422
0.000157626
0.000159261
0.000166473
0.00016645
0.000168422
0.000168412
0.000166475
0.000168441
0.000168425
0.000157611
0.000159261
0.000166485
0.000168435
0.000168433
0.000159246
0.000159528
0.000161191
0.000169073
0.000169082
0.000171011
0.000171008
0.000159549
0.000161183
0.000169081
0.000169078
0.000171021
0.000171011
0.000169081
0.000171028
0.000171013
0.000159555
0.000161176
0.00016909
0.000171036
0.000171025
0.000161182
0.000161474
0.000162984
0.000171644
0.000171636
0.000173537
0.000173525
0.000161459
0.000162979
0.000171655
0.00017163
0.000173546
0.0001735
0.000171645
0.000173544
0.000173553
0.000161443
0.000162958
0.000171657
0.000173525
0.000173562
0.000163013
0.000163205
0.000164637
0.000174141
0.000174136
0.000175845
0.000175865
0.000163211
0.000164674
0.000174151
0.000174119
0.000175855
0.000175877
0.000174166
0.000175888
0.000175858
0.000163202
0.00016469
0.000174174
0.000175904
0.00017587
0.000164626
0.000164917
0.000166642
0.000176436
0.000176455
0.000178384
0.000178366
0.000164947
0.000166608
0.000176446
0.000176463
0.000178394
0.000178342
0.000176435
0.000178383
0.000178369
0.000164953
0.000166572
0.000176448
0.000178364
0.00017838
0.000166632
0.00016687
0.000167877
0.000179012
0.000178985
0.000180524
0.000180521
0.000166832
0.000167887
0.000179023
0.000178958
0.000180534
0.000180521
0.00017901
0.000180545
0.000180556
0.0001668
0.000167907
0.00017902
0.000180551
0.000180565
0.000167903
0.000168009
0.000169529
0.00018097
0.000180979
0.000182581
0.000182593
0.000168032
0.000169557
0.000180981
0.000180987
0.000182594
0.000182587
0.000180995
0.000182614
0.000182583
0.000168056
0.00016953
0.000181006
0.000182612
0.000182598
0.000169537
0.000169827
0.000171431
0.000183212
0.000183221
0.00018505
0.000185065
0.000169855
0.00017145
0.000183225
0.000183203
0.000185058
0.000185036
0.000183218
0.000185089
0.000185066
0.000169816
0.000171431
0.000183232
0.000185066
0.000185075
0.000171424
0.000171609
0.000172626
0.000185591
0.000185601
0.000187015
0.000186975
0.000171617
0.000172563
0.000185599
0.000185584
0.000187028
0.000186994
0.000185594
0.000186995
0.000186987
0.000171613
0.000172592
0.000185603
0.000187019
0.000187002
0.000172596
0.000172744
0.000173899
0.000187449
0.000187402
0.000188793
0.000188804
0.000172681
0.000173955
0.000187466
0.00018742
0.000188808
0.000188783
0.000187434
0.000188833
0.000188847
0.000172703
0.000173914
0.00018745
0.000188813
0.00018886
0.000173974
0.000174087
0.000175415
0.00018929
0.000189326
0.000190829
0.000190862
0.000174164
0.000175447
0.000189301
0.000189294
0.000190836
0.000190841
0.000189348
0.000190888
0.000190828
0.000174119
0.000175437
0.000189359
0.000190872
0.000190837
0.000175378
0.000175563
0.000176591
0.000191308
0.000191318
0.000192612
0.000192581
0.000175567
0.00017655
0.000191319
0.000191308
0.000192631
0.000192578
0.000191286
0.000192603
0.000192596
0.000175565
0.000176539
0.000191297
0.000192604
0.000192613
0.000176581
0.000176715
0.00017786
0.000193036
0.000193008
0.000194337
0.000194329
0.000176679
0.000177863
0.000193053
0.000192999
0.000194342
0.000194322
0.000193037
0.000194356
0.000194369
0.000176665
0.000177875
0.000193054
0.000194354
0.00019438
0.000177891
0.000177982
0.000178855
0.000194772
0.000194768
0.000195985
0.000196007
0.000177994
0.000178908
0.000194781
0.000194774
0.000196008
0.000196023
0.000194798
0.000196034
0.000195976
0.000178017
0.000178909
0.000194808
0.000196052
0.000195995
0.000178836
0.000178914
0.000179982
0.000196342
0.000196375
0.000197443
0.000197444
0.00017897
0.000179963
0.000196367
0.000196373
0.000197447
0.000197369
0.000196333
0.000197472
0.000197456
0.000178948
0.000179863
0.000196355
0.000197406
0.000197467
0.000179991
0.000180169
0.000181489
0.000197892
0.000197864
0.000199331
0.000199292
0.00018012
0.000181473
0.000197891
0.000197788
0.000199342
0.000199311
0.000197904
0.000199318
0.000199334
0.000180031
0.000181539
0.000197906
0.000199331
0.000199341
0.000181495
0.000181544
0.000182001
0.00019973
0.00019972
0.000200585
0.000200649
0.000181565
0.000182091
0.000199751
0.000199769
0.000200615
0.000200668
0.000199741
0.000200683
0.00020063
0.000181641
0.000182084
0.000199759
0.000200715
0.000200662
0.000182045
0.000181952
0.000182656
0.000200817
0.000200874
0.000201581
0.000201517
0.000182018
0.000182543
0.00020084
0.000200855
0.000201587
0.000201486
0.000200858
0.000201544
0.000201546
0.000181989
0.000182539
0.000200884
0.000201509
0.000201549
0.000182583
0.000182763
0.000183826
0.0002019
0.000201813
0.000203058
0.000203066
0.000182638
0.000183916
0.00020191
0.000201813
0.00020307
0.000203053
0.000201847
0.000203087
0.000203051
0.000182649
0.000183846
0.00020185
0.000203081
0.000203071
0.000183854
0.000183877
0.000184618
0.000203436
0.000203495
0.000204271
0.000204322
0.000183998
0.000184649
0.000203444
0.000203439
0.00020428
0.000204261
0.000203464
0.000204362
0.000204305
0.000183908
0.000184621
0.00020348
0.000204304
0.000204313
0.000184621
0.000184681
0.000185467
0.000204545
0.000204538
0.000205526
0.000205464
0.000184651
0.000185428
0.000204568
0.000204542
0.000205562
0.000205544
0.000204556
0.000205502
0.000205545
0.000184678
0.000185487
0.000204568
0.000205569
0.000205575
0.000185519
0.000185391
0.000185539
0.00020583
0.000205801
0.000206189
0.000206221
0.00018539
0.000185592
0.00020586
0.000205838
0.000206181
0.000206155
0.000205871
0.000206237
0.000206202
0.000185412
0.000185553
0.000205899
0.000206216
0.000206217
0.000185528
0.000185514
0.000187353
0.000206282
0.000206291
0.000207537
0.000207494
0.000185535
0.000187306
0.000206279
0.000206263
0.000207575
0.000207536
0.000206262
0.000207526
0.000207451
0.000185538
0.000187275
0.00020628
0.000207508
0.000207476
0.000187233
0.000187543
0.000187169
0.000208147
0.000208121
0.000208664
0.000208678
0.000187526
0.000187209
0.000208177
0.000208077
0.000208655
0.000208509
0.00020807
0.000208703
0.000208653
0.000187392
0.000186999
0.000208077
0.000208557
0.000208637
0.000187175
0.000186829
0.000185937
0.000208543
0.000208558
0.000208039
0.000208104
0.000186866
0.000186062
0.00020853
0.000208444
0.00020808
0.000208275
0.000208568
0.000208155
0.000208205
0.000186755
0.00018652
0.000208563
0.000208358
0.000208267
0.000186246
0.00018601
0.000189314
0.000208123
0.000208189
0.000209942
0.000209892
0.000186169
0.000189192
0.000208165
0.000208359
0.000209987
0.000209798
0.000208279
0.000209939
0.000209904
0.000186627
0.000188724
0.00020834
0.000209791
0.000209939
0.000189072
0.000189701
0.000189507
0.000210814
0.000210694
0.000211461
0.000211331
0.000189496
0.000189304
0.000210802
0.000210369
0.00021141
0.000211139
0.000210608
0.000211312
0.000211187
0.000188865
0.000189306
0.000210598
0.000211137
0.000211138
0.000189156
0.000189163
0.000187388
0.000211323
0.000211232
0.000210229
0.000210345
0.000188982
0.00018768
0.000211287
0.000211126
0.000210306
0.000210671
0.000211116
0.000210392
0.000210375
0.000189084
0.00018814
0.000211076
0.00021071
0.000210414
0.000187712
0.000187146
0.000187427
0.000209923
0.000210155
0.000210382
0.000210654
0.00018749
0.000188048
0.000210011
0.00021039
0.000210439
0.000210532
0.000210174
0.000210721
0.000210724
0.000187856
0.00018762
0.000210232
0.000210646
0.000210787
0.000188047
0.000187657
0.000193251
0.000210769
0.000210993
0.000214079
0.000213604
0.000188216
0.000192169
0.000210819
0.00021087
0.000213996
0.000213396
0.000211116
0.000213586
0.000213585
0.000187683
0.000192123
0.000211177
0.000213396
0.000213588
0.000192126
0.000193405
0.000188532
0.000214613
0.000214032
0.00021344
0.000213238
0.00019222
0.000188497
0.000214562
0.000214093
0.000213499
0.000213543
0.000213882
0.000213132
0.000212831
0.000192409
0.000189519
0.000213875
0.000213414
0.000212795
0.000188376
0.000187301
0.000185567
0.00021173
0.000212121
0.000209538
0.000210371
0.000187747
0.000187435
0.000211843
0.000212294
0.000209512
0.00020939
0.000211629
0.000210513
0.000210087
0.000188455
0.000184985
0.00021159
0.000209531
0.000210016
0.00018623
0.000186257
0.000191233
0.000209654
0.00021034
0.000212863
0.000211872
0.00018781
0.000189762
0.000209597
0.000209431
0.000212913
0.000213541
0.000210192
0.000211866
0.000213397
0.000185138
0.000192822
0.000210151
0.000213829
0.000213759
0.000191883
0.000191551
0.00019658
0.000214684
0.000213513
0.000219362
0.000218986
0.000189927
0.000196123
0.00021478
0.000215773
0.000219384
0.000219381
0.000214943
0.000218822
0.000218424
0.000193661
0.00019586
0.000215364
0.000219306
0.000218455
0.000195221
0.000197231
0.00019691
0.000220309
0.000220158
0.000218217
0.00021919
0.000196773
0.000197029
0.000220284
0.000219287
0.000217763
0.000214756
0.00021877
0.000219112
0.000216217
0.000195494
0.000191835
0.000218618
0.000214187
0.00021526
0.000193872
0.000194552
0.000167349
0.000214392
0.000215076
0.000198319
0.000199974
0.000194737
0.00017102
0.000214097
0.000211595
0.000198563
0.000201515
0.00021306
0.000200275
0.000200891
0.000189936
0.000173536
0.000212257
0.000201735
0.000200892
0.000171166
0.000163619
0.000170116
0.000193124
0.00019515
0.000198158
0.000198313
0.000167386
0.000171215
0.000193319
0.000196839
0.000198274
0.00020007
0.000195783
0.000198226
0.000199086
0.000170027
0.00017112
0.000196118
0.000200821
0.000199959
0.00017013
0.000177077
0.000249555
0.000205669
0.000205692
0.000255732
0.000250476
0.000176603
0.000237783
0.000205524
0.000206008
0.00025493
0.000249664
0.000205321
0.000249393
0.000252057
0.000174724
0.000244461
0.000206033
0.00024886
0.000251721
0.000249438
0.000256575
0.000264207
0.000258381
0.000244728
0.000263757
0.000259222
0.000269476
0.000268145
0.00026974
0.000261151
0.000253155
0.000260691
0.00023473
0.000234746
0.000234729
0.000234729
0.000235117
0.000234798
0.000234701
0.000234727
0.000235118
0.000234798
0.000234727
0.000234701
0.000234867
0.000233566
0.000233566
0.000104651
3.87412e-05
0.000129118
3.98247e-05
2.16834e-05
2.28313e-05
0.000104643
3.87371e-05
0.000129114
3.98214e-05
0.000233973
0.000233973
0.000233973
0.000232935
0.000232935
0.000232935
0.000232935
0.000206196
9.36752e-05
0.000233969
0.000231994
0.000222614
8.72226e-05
0.000233611
2.16823e-05
2.28306e-05
0.00020619
0.000233969
9.36748e-05
0.000231994
0.000222622
0.000233611
8.72281e-05
4.78014e-05
4.77895e-05
0.000231345
4.40183e-05
4.40088e-05
7.2568e-05
4.24343e-05
8.14029e-05
4.37632e-05
2.47749e-05
2.54634e-05
7.25579e-05
4.24306e-05
8.13975e-05
4.37594e-05
0.000232532
0.000232532
0.000232532