/*--------------------------------*- C++ -*----------------------------------*\
| =========                 |                                                 |
| \\      /  F ield         | OpenFOAM: The Open Source CFD Toolbox           |
|  \\    /   O peration     | Version:  v2012                                 |
|   \\  /    A nd           | Website:  www.openfoam.com                      |
|    \\/     M anipulation  |                                                 |
\*---------------------------------------------------------------------------*/
FoamFile
{
    version     2.0;
    format      ascii;
    class       volScalarField;
    location    "875";
    object      p;
}
// * * * * * * * * * * * * * * * * * * * * * * * * * * * * * * * * * * * * * //

dimensions      [0 2 -2 0 0 0 0];


internalField   nonuniform List<scalar> 
171728
(
0.00360595
0.00360628
0.00360628
0.00360933
0.0035506
0.00355101
0.00355101
0.00355401
0.00349984
0.00349981
0.00349981
0.00350257
0.00344745
0.00344747
0.00344747
0.00345024
0.0033961
0.00339611
0.00339611
0.00339886
0.00334612
0.00334613
0.00334612
0.00334885
0.0032976
0.00329761
0.00329761
0.0033003
0.00325037
0.00325037
0.00325039
0.00325304
0.00320423
0.00320426
0.00320427
0.00320686
0.00315901
0.00315902
0.00315903
0.00316161
0.0031145
0.00311451
0.00311452
0.0031171
0.00307059
0.0030706
0.00307058
0.00307314
0.00302725
0.00302717
0.0030272
0.00302976
0.00298436
0.00298438
0.00298438
0.00298683
0.00294192
0.00294191
0.0029419
0.00294446
0.00289975
0.00289983
0.00289977
0.00290224
0.00285784
0.00285771
0.00285771
0.0028603
0.0028163
0.00281624
0.00281629
0.00281884
0.00277532
0.00277531
0.00277536
0.00277758
0.00273458
0.00273455
0.00273457
0.00273726
0.00269419
0.00269415
0.00269428
0.00269652
0.00265401
0.0026539
0.0026538
0.00265628
0.00261413
0.00261407
0.00261408
0.00261669
0.00257447
0.00257437
0.00257444
0.00257683
0.0025351
0.00253506
0.00253505
0.00253734
0.00249585
0.00249579
0.00249578
0.00249819
0.00245685
0.00245685
0.00245683
0.00245916
0.00241805
0.00241799
0.00241799
0.00242035
0.00237945
0.00237944
0.00237944
0.00238174
0.00234103
0.002341
0.00234099
0.00234331
0.0023028
0.00230276
0.00230276
0.00230506
0.00226473
0.0022647
0.0022647
0.00226697
0.00222683
0.0022268
0.0022268
0.00222907
0.00218909
0.00218907
0.00218907
0.00219131
0.00215151
0.0021515
0.0021515
0.00215373
0.00211409
0.00211407
0.00211407
0.00211627
0.00207681
0.0020768
0.00207679
0.00207899
0.00203967
0.00203965
0.00203965
0.00204182
0.00200267
0.00200265
0.00200265
0.0020048
0.0019658
0.00196577
0.00196577
0.00196792
0.00192904
0.00192901
0.00192901
0.00193114
0.00189241
0.00189236
0.00189236
0.00189449
0.00185589
0.00185584
0.00185584
0.00185795
0.00181947
0.00181941
0.00181941
0.00182152
0.00178315
0.00178309
0.00178309
0.00178518
0.00174694
0.00174686
0.00174686
0.00174896
0.00171079
0.00171071
0.00171072
0.00171279
0.00167473
0.00167464
0.00167464
0.00167672
0.00163876
0.00163867
0.00163867
0.00164074
0.00160285
0.00160275
0.00160275
0.00160481
0.001567
0.0015669
0.0015669
0.00156894
0.00153123
0.00153112
0.00153112
0.00153318
0.00149551
0.00149539
0.00149539
0.00149743
0.00145983
0.00145971
0.0014597
0.00146174
0.00142421
0.00142409
0.00142409
0.00142612
0.00138862
0.0013885
0.00138849
0.00139052
0.00135307
0.00135295
0.00135295
0.00135497
0.00131757
0.00131744
0.00131743
0.00131946
0.00128208
0.00128195
0.00128195
0.00128398
0.0012466
0.00124647
0.00124648
0.00124848
0.0012112
0.00121109
0.00121108
0.00121311
0.00117572
0.0011756
0.0011756
0.0011776
0.00114033
0.00114022
0.00114022
0.00114223
0.00110498
0.00110488
0.00110488
0.00110688
0.00106954
0.00106942
0.00106943
0.00107143
0.00103414
0.00103405
0.00103404
0.00103605
0.000998778
0.00099868
0.000998682
0.00100068
0.000963359
0.000963256
0.000963256
0.000965265
0.000927968
0.000927882
0.000927883
0.000929889
0.000892538
0.000892449
0.000892451
0.000894447
0.000857114
0.000857024
0.000857015
0.000859034
0.000821753
0.000821677
0.000821688
0.000823688
0.000786206
0.00078613
0.000786124
0.000788135
0.000750675
0.000750584
0.000750585
0.000752597
0.000715249
0.0007152
0.000715194
0.000717212
0.000679708
0.000679625
0.000679628
0.000681635
0.000644172
0.000644113
0.000644122
0.000646149
0.000608477
0.000608395
0.000608388
0.00061039
0.000573042
0.000573001
0.000573006
0.000575032
0.000537276
0.000537222
0.000537195
0.000539248
0.000501335
0.000501245
0.000501305
0.000503267
0.000466067
0.000466065
0.000466007
0.000468103
0.000430258
0.000430179
0.000430172
0.000432184
0.000394166
0.00039411
0.000394183
0.000396187
0.000358345
0.000358347
0.000358261
0.000360347
0.000323052
0.000322982
0.000322976
0.00032504
0.00028658
0.000286483
0.00028662
0.000288576
0.000250331
0.000250446
0.000250193
0.00025238
0.000215231
0.000215124
0.000215369
0.000217349
0.0001792
0.000179029
0.000179042
0.000180949
0.000143062
0.000143074
0.000142744
0.000145085
0.000104708
0.000105035
0.000105537
0.000107487
6.90623e-05
6.87558e-05
6.84139e-05
7.0223e-05
4.06585e-05
3.958e-05
3.98644e-05
4.19623e-05
1.01009e-05
1.08445e-05
1.24073e-05
9.22988e-06
0.00361936
0.00361958
0.00361958
0.00361936
0.00361958
0.00361958
0.00362035
0.00362035
0.00362035
0.00362035
0.00361958
0.00361958
0.00361936
0.00361959
0.00361959
0.00361936
0.00360933
0.00356058
0.00360628
0.00360628
0.00356286
0.00356286
0.00360933
0.00356057
0.00360628
0.00360628
0.00356285
0.00356286
0.00360628
0.00356285
0.00356285
0.00360933
0.00356058
0.00360628
0.00356285
0.00356285
0.00356057
0.00355401
0.0035095
0.00355102
0.00355102
0.00351294
0.00351294
0.00355401
0.0035095
0.00355101
0.00355101
0.00351294
0.00351294
0.00355102
0.00351294
0.00351294
0.00355401
0.00350949
0.00355101
0.00351294
0.00351294
0.0035095
0.00350257
0.00345712
0.00349982
0.00349982
0.00346048
0.00346048
0.00350257
0.00345712
0.00349981
0.00349982
0.00346048
0.00346049
0.00349981
0.00346048
0.00346048
0.00350257
0.00345712
0.00349981
0.00346048
0.00346048
0.00345712
0.00345024
0.00340557
0.00344747
0.00344747
0.00340884
0.00340883
0.00345024
0.00340557
0.00344747
0.00344747
0.00340884
0.00340884
0.00344747
0.00340883
0.00340883
0.00345024
0.00340557
0.00344747
0.00340884
0.00340883
0.00340557
0.00339886
0.00335536
0.00339611
0.00339611
0.00335849
0.0033585
0.00339886
0.00335536
0.00339611
0.00339611
0.0033585
0.00335849
0.00339611
0.0033585
0.00335849
0.00339886
0.00335536
0.00339611
0.0033585
0.00335849
0.00335535
0.00334886
0.0033066
0.00334614
0.00334613
0.00330961
0.00330962
0.00334885
0.0033066
0.00334613
0.00334613
0.0033096
0.00330961
0.00334613
0.00330962
0.00330962
0.00334885
0.0033066
0.00334613
0.00330962
0.00330962
0.00330659
0.0033003
0.00325918
0.00329762
0.00329761
0.00326209
0.0032621
0.00330029
0.00325917
0.00329763
0.00329762
0.00326207
0.00326208
0.00329761
0.0032621
0.00326209
0.00330029
0.00325916
0.00329761
0.00326208
0.00326209
0.00325917
0.00325304
0.00321286
0.00325038
0.00325037
0.00321571
0.00321569
0.00325302
0.00321287
0.00325041
0.00325039
0.00321569
0.00321568
0.00325038
0.00321569
0.00321573
0.00325303
0.00321288
0.00325038
0.00321568
0.00321573
0.00321286
0.00320687
0.00316749
0.00320423
0.00320426
0.00317029
0.00317028
0.00320689
0.0031675
0.00320425
0.00320429
0.00317027
0.00317026
0.00320423
0.00317028
0.00317027
0.0032069
0.0031675
0.00320423
0.00317027
0.00317028
0.00316748
0.00316162
0.00312287
0.00315901
0.00315902
0.00312558
0.00312561
0.00316162
0.00312286
0.00315903
0.00315903
0.00312557
0.00312559
0.00315901
0.00312561
0.00312558
0.00316163
0.00312287
0.00315901
0.0031256
0.00312558
0.00312288
0.0031171
0.00307887
0.00311453
0.0031145
0.00308151
0.00308158
0.00311709
0.00307885
0.00311454
0.00311453
0.00308152
0.00308157
0.00311454
0.00308157
0.00308158
0.00311709
0.00307883
0.00311454
0.00308158
0.00308158
0.00307885
0.00307319
0.00303544
0.00307063
0.0030706
0.00303808
0.00303804
0.00307312
0.0030353
0.00307063
0.00307059
0.00303809
0.00303801
0.00307057
0.00303803
0.00303803
0.00307312
0.00303533
0.00307057
0.00303801
0.00303804
0.0030354
0.00302979
0.00299242
0.00302729
0.00302717
0.00299504
0.00299504
0.00302971
0.00299242
0.00302729
0.00302721
0.00299504
0.00299507
0.00302729
0.00299504
0.00299508
0.00302974
0.00299242
0.00302729
0.00299506
0.00299508
0.00299238
0.00298687
0.00294994
0.00298433
0.00298439
0.00295246
0.00295256
0.00298684
0.00294984
0.00298432
0.00298439
0.00295246
0.00295256
0.00298429
0.00295256
0.00295253
0.00298684
0.00294989
0.00298429
0.00295257
0.00295253
0.00294996
0.00294443
0.00290776
0.00294192
0.00294189
0.00291025
0.0029105
0.00294434
0.00290794
0.00294192
0.0029419
0.00291025
0.00291041
0.00294194
0.00291051
0.0029103
0.0029444
0.00290788
0.00294194
0.00291041
0.0029103
0.00290778
0.00290228
0.00286577
0.00289979
0.00289983
0.00286827
0.0028682
0.0029024
0.00286562
0.00289978
0.00289977
0.00286827
0.00286815
0.00289972
0.00286819
0.00286814
0.00290235
0.00286563
0.00289972
0.00286814
0.00286813
0.00286569
0.00286035
0.00282413
0.00285786
0.00285772
0.00282664
0.00282657
0.00286019
0.00282406
0.00285786
0.00285772
0.00282664
0.00282659
0.00285782
0.00282658
0.00282669
0.00286019
0.0028241
0.00285782
0.00282659
0.00282669
0.00282428
0.00281874
0.00278325
0.00281629
0.00281623
0.0027856
0.00278556
0.00281868
0.00278316
0.0028163
0.00281629
0.0027856
0.00278559
0.00281634
0.00278554
0.00278535
0.00281872
0.00278319
0.00281635
0.00278557
0.00278536
0.00278283
0.00277786
0.00274207
0.00277533
0.00277532
0.00274453
0.00274466
0.00277781
0.0027422
0.00277533
0.00277537
0.00274453
0.00274465
0.0027752
0.00274469
0.00274492
0.00277784
0.00274219
0.0027752
0.00274468
0.00274492
0.00274262
0.00273687
0.00270206
0.00273448
0.00273453
0.00270441
0.00270439
0.00273697
0.00270198
0.00273447
0.00273455
0.00270441
0.00270443
0.00273469
0.00270437
0.00270412
0.00273694
0.00270215
0.00273469
0.00270442
0.00270413
0.00270178
0.00269671
0.00266165
0.00269421
0.00269416
0.00266392
0.00266392
0.00269663
0.00266151
0.00269421
0.00269429
0.00266392
0.00266382
0.00269408
0.00266391
0.00266386
0.00269685
0.00266137
0.00269409
0.00266381
0.00266385
0.00266146
0.00265645
0.00262173
0.00265399
0.00265391
0.002624
0.00262405
0.00265631
0.00262172
0.00265398
0.00265381
0.002624
0.00262406
0.00265387
0.00262406
0.0026242
0.00265617
0.00262174
0.00265387
0.00262407
0.0026242
0.00262194
0.00261652
0.00258185
0.00261406
0.00261406
0.00258421
0.00258427
0.00261652
0.00258196
0.00261406
0.00261407
0.00258422
0.00258432
0.00261418
0.00258428
0.00258431
0.00261654
0.00258208
0.00261418
0.00258433
0.00258432
0.00258201
0.00257674
0.00254271
0.00257433
0.00257437
0.00254495
0.00254489
0.0025768
0.00254268
0.00257434
0.00257444
0.00254495
0.00254486
0.0025744
0.00254488
0.00254478
0.00257691
0.00254264
0.0025744
0.00254485
0.00254478
0.00254247
0.00253754
0.00250329
0.00253506
0.00253507
0.00250556
0.00250555
0.00253753
0.0025033
0.00253506
0.00253506
0.00250556
0.00250555
0.00253495
0.00250555
0.0025056
0.0025375
0.00250329
0.00253495
0.00250554
0.0025056
0.00250332
0.00249817
0.00246424
0.00249577
0.00249579
0.00246651
0.00246656
0.00249818
0.00246436
0.00249577
0.00249577
0.00246651
0.00246653
0.00249578
0.00246656
0.00246655
0.00249816
0.00246432
0.00249578
0.00246653
0.00246654
0.00246427
0.00245914
0.00242542
0.00245677
0.00245685
0.00242769
0.00242766
0.00245925
0.00242542
0.00245676
0.00245683
0.00242769
0.00242767
0.00245678
0.00242766
0.00242769
0.00245922
0.00242542
0.00245678
0.00242767
0.00242769
0.00242543
0.00242034
0.00238682
0.00241798
0.00241799
0.00238906
0.00238905
0.00242034
0.00238685
0.00241798
0.00241799
0.00238906
0.00238908
0.00241798
0.00238905
0.00238905
0.00242035
0.00238688
0.00241798
0.00238908
0.00238905
0.00238681
0.00238175
0.00234839
0.00237941
0.00237943
0.00235059
0.00235058
0.00238179
0.00234837
0.00237941
0.00237944
0.00235059
0.00235056
0.0023794
0.00235058
0.00235059
0.00238181
0.00234835
0.0023794
0.00235056
0.00235059
0.00234836
0.00234334
0.0023101
0.002341
0.002341
0.0023123
0.0023123
0.00234332
0.00231009
0.002341
0.00234099
0.0023123
0.0023123
0.00234099
0.0023123
0.0023123
0.00234331
0.0023101
0.00234099
0.0023123
0.0023123
0.00231008
0.00230508
0.00227198
0.00230277
0.00230276
0.00227419
0.00227419
0.00230507
0.00227199
0.00230277
0.00230276
0.00227419
0.00227419
0.00230275
0.00227419
0.0022742
0.00230507
0.00227199
0.00230275
0.00227419
0.0022742
0.00227198
0.00226697
0.00223405
0.00226469
0.0022647
0.00223626
0.00223627
0.00226698
0.00223406
0.00226469
0.0022647
0.00223626
0.00223626
0.00226469
0.00223627
0.00223627
0.00226699
0.00223406
0.00226469
0.00223626
0.00223627
0.00223407
0.00222906
0.0021963
0.0022268
0.0022268
0.0021985
0.00219849
0.00222906
0.00219629
0.0022268
0.0022268
0.0021985
0.00219849
0.00222681
0.00219849
0.00219849
0.00222907
0.00219629
0.00222681
0.00219849
0.00219849
0.00219629
0.00219132
0.00215868
0.00218908
0.00218907
0.00216087
0.00216088
0.00219131
0.00215868
0.00218908
0.00218907
0.00216087
0.00216088
0.00218907
0.00216088
0.00216088
0.00219131
0.00215868
0.00218907
0.00216088
0.00216088
0.00215869
0.00215372
0.00212123
0.0021515
0.0021515
0.00212342
0.00212342
0.00215372
0.00212123
0.0021515
0.0021515
0.00212342
0.00212342
0.00215151
0.00212342
0.00212342
0.00215372
0.00212123
0.00215151
0.00212342
0.00212342
0.00212122
0.00211628
0.00208391
0.00211407
0.00211408
0.0020861
0.0020861
0.00211628
0.00208392
0.00211407
0.00211407
0.0020861
0.0020861
0.00211407
0.0020861
0.0020861
0.00211628
0.00208391
0.00211407
0.0020861
0.0020861
0.00208392
0.00207898
0.00204675
0.00207679
0.00207679
0.00204893
0.00204893
0.00207898
0.00204675
0.00207679
0.00207679
0.00204893
0.00204893
0.0020768
0.00204893
0.00204893
0.00207898
0.00204675
0.0020768
0.00204893
0.00204893
0.00204674
0.00204183
0.00200972
0.00203966
0.00203965
0.00201189
0.00201189
0.00204182
0.00200972
0.00203966
0.00203965
0.00201189
0.00201189
0.00203965
0.00201189
0.00201189
0.00204182
0.00200972
0.00203965
0.00201189
0.00201189
0.00200972
0.0020048
0.00197281
0.00200265
0.00200265
0.00197498
0.00197498
0.00200481
0.00197281
0.00200265
0.00200265
0.00197498
0.00197498
0.00200265
0.00197498
0.00197498
0.0020048
0.00197282
0.00200265
0.00197498
0.00197498
0.00197282
0.00196792
0.00193603
0.00196577
0.00196577
0.00193819
0.00193819
0.00196792
0.00193603
0.00196577
0.00196577
0.00193819
0.00193819
0.00196577
0.00193819
0.00193819
0.00196792
0.00193603
0.00196577
0.00193819
0.00193819
0.00193603
0.00193114
0.00189937
0.00192901
0.00192901
0.00190152
0.00190152
0.00193114
0.00189937
0.00192901
0.00192901
0.00190152
0.00190152
0.00192901
0.00190152
0.00190151
0.00193114
0.00189937
0.00192901
0.00190152
0.00190151
0.00189937
0.00189449
0.00186282
0.00189237
0.00189237
0.00186496
0.00186496
0.00189449
0.00186283
0.00189237
0.00189236
0.00186496
0.00186496
0.00189237
0.00186496
0.00186496
0.00189449
0.00186283
0.00189237
0.00186496
0.00186496
0.00186282
0.00185795
0.00182638
0.00185584
0.00185584
0.00182851
0.00182851
0.00185796
0.00182637
0.00185584
0.00185584
0.00182851
0.00182851
0.00185584
0.00182851
0.00182851
0.00185796
0.00182637
0.00185584
0.00182851
0.00182851
0.00182638
0.00182152
0.00179003
0.00181941
0.00181941
0.00179216
0.00179216
0.00182151
0.00179003
0.00181941
0.00181941
0.00179216
0.00179216
0.00181941
0.00179216
0.00179216
0.00182152
0.00179003
0.00181941
0.00179216
0.00179216
0.00179003
0.00178518
0.0017538
0.00178308
0.00178309
0.00175591
0.00175591
0.00178518
0.00175379
0.00178308
0.00178309
0.00175591
0.00175591
0.00178308
0.00175591
0.00175591
0.00178518
0.00175379
0.00178308
0.00175591
0.00175591
0.0017538
0.00174896
0.00171763
0.00174687
0.00174686
0.00171975
0.00171975
0.00174895
0.00171764
0.00174687
0.00174686
0.00171975
0.00171975
0.00174687
0.00171975
0.00171975
0.00174895
0.00171764
0.00174687
0.00171975
0.00171975
0.00171763
0.00171279
0.00168155
0.00171071
0.00171071
0.00168365
0.00168365
0.0017128
0.00168154
0.00171071
0.00171072
0.00168365
0.00168365
0.00171071
0.00168365
0.00168365
0.0017128
0.00168154
0.00171071
0.00168365
0.00168365
0.00168155
0.00167672
0.00164556
0.00167464
0.00167464
0.00164766
0.00164766
0.00167672
0.00164556
0.00167464
0.00167464
0.00164766
0.00164766
0.00167464
0.00164766
0.00164766
0.00167672
0.00164556
0.00167464
0.00164766
0.00164766
0.00164556
0.00164074
0.00160963
0.00163867
0.00163867
0.00161173
0.00161173
0.00164074
0.00160963
0.00163867
0.00163867
0.00161173
0.00161173
0.00163867
0.00161173
0.00161173
0.00164074
0.00160963
0.00163867
0.00161173
0.00161173
0.00160963
0.00160481
0.00157376
0.00160275
0.00160275
0.00157585
0.00157585
0.00160481
0.00157376
0.00160275
0.00160275
0.00157585
0.00157585
0.00160275
0.00157585
0.00157585
0.00160481
0.00157376
0.00160275
0.00157585
0.00157585
0.00157376
0.00156894
0.00153799
0.00156689
0.00156689
0.00154007
0.00154006
0.00156895
0.00153798
0.00156689
0.0015669
0.00154007
0.00154006
0.00156689
0.00154006
0.00154006
0.00156895
0.00153798
0.00156689
0.00154006
0.00154006
0.00153798
0.00153318
0.00150224
0.00153113
0.00153112
0.00150432
0.00150432
0.00153317
0.00150224
0.00153113
0.00153112
0.00150432
0.00150432
0.00153113
0.00150432
0.00150432
0.00153317
0.00150224
0.00153113
0.00150432
0.00150432
0.00150224
0.00149743
0.00146655
0.00149539
0.00149539
0.00146862
0.00146862
0.00149744
0.00146654
0.00149539
0.00149539
0.00146862
0.00146862
0.00149539
0.00146862
0.00146862
0.00149744
0.00146654
0.00149539
0.00146862
0.00146862
0.00146654
0.00146175
0.00143092
0.00145971
0.00145971
0.00143299
0.00143299
0.00146174
0.00143092
0.00145971
0.00145971
0.00143299
0.00143299
0.00145971
0.00143299
0.00143299
0.00146174
0.00143092
0.00145971
0.00143299
0.00143299
0.00143092
0.00142612
0.00139532
0.00142409
0.00142409
0.00139739
0.00139739
0.00142612
0.00139532
0.00142409
0.00142409
0.00139739
0.00139739
0.00142409
0.00139739
0.00139739
0.00142612
0.00139532
0.00142409
0.00139739
0.00139739
0.00139532
0.00139052
0.00135976
0.0013885
0.0013885
0.00136183
0.00136183
0.00139052
0.00135977
0.0013885
0.00138849
0.00136183
0.00136183
0.0013885
0.00136183
0.00136183
0.00139052
0.00135977
0.0013885
0.00136183
0.00136183
0.00135977
0.00135497
0.00132425
0.00135295
0.00135295
0.00132631
0.00132631
0.00135497
0.00132425
0.00135295
0.00135295
0.00132631
0.00132631
0.00135295
0.00132631
0.00132631
0.00135497
0.00132425
0.00135295
0.00132631
0.00132631
0.00132425
0.00131946
0.00128877
0.00131744
0.00131744
0.00129082
0.00129082
0.00131946
0.00128877
0.00131744
0.00131743
0.00129083
0.00129082
0.00131744
0.00129082
0.00129083
0.00131946
0.00128876
0.00131744
0.00129082
0.00129083
0.00128877
0.00128397
0.00125327
0.00128195
0.00128195
0.00125533
0.00125534
0.00128397
0.00125327
0.00128195
0.00128195
0.00125533
0.00125534
0.00128196
0.00125534
0.00125533
0.00128397
0.00125328
0.00128196
0.00125534
0.00125533
0.00125327
0.00124848
0.0012179
0.00124647
0.00124647
0.00121994
0.00121994
0.00124849
0.00121789
0.00124647
0.00124648
0.00121994
0.00121993
0.00124647
0.00121994
0.00121994
0.00124849
0.00121788
0.00124647
0.00121993
0.00121994
0.00121789
0.00121311
0.0011824
0.00121109
0.00121109
0.00118447
0.00118447
0.0012131
0.0011824
0.00121109
0.00121108
0.00118447
0.00118447
0.00121109
0.00118447
0.00118447
0.0012131
0.0011824
0.00121109
0.00118447
0.00118447
0.0011824
0.00117759
0.00114701
0.00117559
0.00117559
0.00114904
0.00114904
0.0011776
0.00114701
0.00117559
0.0011756
0.00114904
0.00114904
0.00117559
0.00114904
0.00114904
0.0011776
0.001147
0.00117559
0.00114904
0.00114904
0.001147
0.00114223
0.00111168
0.00114022
0.00114022
0.00111373
0.00111373
0.00114223
0.00111168
0.00114022
0.00114022
0.00111373
0.00111373
0.00114022
0.00111373
0.00111373
0.00114223
0.00111168
0.00114022
0.00111373
0.00111373
0.00111168
0.00110688
0.00107623
0.00110488
0.00110488
0.00107829
0.00107829
0.00110689
0.00107623
0.00110488
0.00110488
0.00107829
0.00107829
0.00110488
0.00107829
0.00107829
0.00110689
0.00107623
0.00110488
0.00107829
0.00107829
0.00107623
0.00107143
0.00104083
0.00106943
0.00106942
0.00104287
0.00104288
0.00107142
0.00104084
0.00106943
0.00106943
0.00104287
0.00104288
0.00106943
0.00104288
0.00104288
0.00107143
0.00104083
0.00106943
0.00104288
0.00104288
0.00104084
0.00103604
0.00100549
0.00103404
0.00103405
0.00100753
0.00100753
0.00103605
0.00100549
0.00103404
0.00103404
0.00100753
0.00100753
0.00103405
0.00100753
0.00100752
0.00103605
0.00100549
0.00103405
0.00100753
0.00100752
0.00100548
0.00100069
0.000970064
0.000998683
0.000998682
0.000972114
0.000972109
0.00100069
0.000970059
0.000998683
0.000998683
0.000972115
0.00097211
0.000998676
0.000972109
0.000972112
0.00100069
0.000970058
0.000998676
0.000972109
0.000972112
0.000970063
0.000965262
0.000934684
0.000963259
0.000963256
0.000936723
0.000936725
0.000965259
0.000934686
0.00096326
0.000963256
0.000936722
0.000936724
0.000963261
0.000936725
0.000936728
0.000965258
0.000934687
0.000963261
0.000936725
0.000936727
0.000934687
0.000929886
0.000899265
0.00092788
0.000927881
0.000901315
0.000901316
0.000929888
0.000899267
0.000927879
0.000927883
0.000901316
0.000901321
0.000927882
0.000901316
0.00090131
0.00092989
0.000899271
0.000927882
0.00090132
0.000901311
0.000899259
0.000894452
0.000863825
0.000892446
0.000892449
0.000865865
0.000865866
0.000894454
0.000863824
0.000892448
0.000892452
0.000865863
0.000865857
0.000892443
0.000865866
0.000865868
0.000894457
0.000863812
0.000892444
0.000865858
0.000865867
0.000863829
0.00085903
0.0008285
0.000857027
0.000857024
0.000830532
0.000830526
0.000859027
0.000828494
0.000857025
0.000857014
0.000830533
0.000830534
0.000857029
0.000830526
0.000830529
0.000859015
0.000828506
0.000857028
0.000830531
0.000830529
0.000828496
0.000823691
0.000792959
0.000821679
0.000821677
0.000795019
0.000795031
0.000823688
0.000792975
0.000821681
0.000821689
0.000795021
0.000795033
0.000821677
0.000795033
0.000795027
0.000823703
0.000792971
0.000821678
0.000795035
0.000795029
0.000792968
0.000788127
0.000757421
0.000786119
0.000786128
0.000759462
0.000759451
0.000788139
0.000757403
0.000786119
0.000786121
0.00075946
0.000759448
0.000786126
0.00075945
0.000759455
0.000788131
0.000757403
0.000786126
0.000759446
0.000759453
0.000757409
0.000752609
0.000722018
0.000750599
0.000750586
0.000724049
0.000724053
0.00075259
0.000722032
0.000750598
0.000750589
0.000724049
0.000724056
0.000750589
0.000724052
0.00072405
0.000752595
0.000722029
0.000750588
0.000724055
0.000724051
0.000722025
0.000717201
0.000686467
0.000715186
0.000715199
0.000688521
0.000688526
0.00071722
0.000686467
0.000715185
0.000715193
0.000688519
0.000688518
0.000715193
0.000688527
0.000688524
0.000717212
0.000686464
0.000715194
0.00068852
0.000688522
0.000686465
0.00068164
0.000650979
0.00067963
0.000679624
0.000653006
0.000652992
0.000681632
0.000650963
0.000679631
0.000679628
0.000653011
0.000653013
0.000679627
0.000652992
0.000653002
0.000681637
0.000650983
0.000679626
0.000653009
0.000653005
0.000650977
0.000646145
0.000615238
0.000644117
0.000644113
0.000617316
0.00061733
0.000646138
0.000615256
0.000644119
0.000644123
0.000617311
0.000617311
0.00064412
0.000617331
0.000617325
0.00064615
0.000615237
0.000644123
0.000617317
0.000617323
0.000615245
0.000610389
0.000579838
0.000608389
0.000608395
0.000581829
0.000581815
0.0006104
0.000579818
0.000608386
0.000608385
0.000581833
0.000581835
0.000608388
0.000581813
0.000581812
0.000610387
0.000579838
0.000608386
0.000581827
0.000581814
0.000579818
0.00057505
0.000544164
0.000573013
0.000573003
0.000546256
0.000546264
0.000575033
0.000544177
0.000573017
0.000573015
0.000546249
0.000546226
0.000572999
0.000546265
0.000546259
0.000575047
0.000544132
0.000573001
0.000546229
0.000546251
0.000544167
0.000539243
0.000508053
0.000537215
0.000537221
0.000510128
0.00051013
0.000539253
0.000508058
0.000537207
0.000537189
0.000510135
0.000510183
0.000537221
0.000510134
0.000510151
0.000539219
0.000508132
0.000537214
0.00051019
0.000510162
0.000508085
0.000503233
0.000472911
0.000501234
0.00050124
0.000474871
0.00047487
0.00050324
0.000472906
0.000501246
0.000501301
0.000474872
0.000474853
0.000501261
0.000474871
0.000474869
0.000503313
0.000472861
0.000501275
0.000474848
0.000474867
0.000472899
0.00046813
0.000437152
0.000466077
0.000466067
0.000439257
0.000439245
0.000468118
0.000437142
0.000466071
0.000466014
0.00043924
0.000439191
0.000466052
0.000439232
0.000439204
0.000468053
0.000437102
0.000466043
0.000439186
0.000439192
0.000437098
0.000432222
0.000401004
0.000430196
0.000430188
0.000403063
0.000403059
0.000432214
0.000400998
0.000430187
0.000430175
0.000403085
0.000403162
0.000430162
0.000403069
0.000403109
0.000432202
0.000401114
0.000430156
0.000403165
0.000403124
0.000401059
0.000396135
0.000365155
0.000394092
0.000394097
0.000367222
0.000367277
0.000396135
0.000365237
0.000394115
0.000394179
0.000367214
0.000367202
0.000394141
0.000367283
0.000367263
0.00039623
0.000365123
0.000394157
0.000367211
0.000367256
0.000365203
0.000360297
0.000329903
0.00035829
0.000358341
0.000331837
0.000331792
0.000360374
0.000329824
0.000358275
0.000358248
0.000331825
0.000331769
0.000358332
0.000331787
0.000331794
0.00036026
0.000329806
0.00035832
0.000331764
0.000331788
0.000329828
0.000325159
0.000293654
0.000323081
0.000322996
0.000295843
0.000295786
0.000325051
0.000293588
0.000323069
0.000322992
0.000295866
0.000295906
0.000322971
0.000295767
0.000295778
0.000325045
0.000293744
0.00032297
0.000295886
0.000295791
0.000293614
0.000288557
0.000257013
0.000286491
0.000286485
0.00025902
0.000259164
0.000288527
0.000257221
0.00028652
0.000286625
0.000259018
0.000259037
0.000286521
0.000259209
0.000259179
0.000288692
0.00025697
0.000286536
0.000259067
0.000259165
0.000257155
0.000252295
0.000222272
0.000250286
0.000250418
0.000224208
0.000224124
0.000252482
0.00022211
0.000250257
0.000250169
0.000224172
0.000224111
0.000250364
0.000224098
0.000224128
0.000252171
0.00022223
0.000250332
0.000224108
0.000224123
0.000222193
0.000217391
0.000185881
0.000215285
0.000215152
0.00018806
0.000188047
0.000217199
0.000185901
0.000215283
0.000215368
0.000188111
0.000188278
0.000215242
0.000188045
0.000188086
0.000217478
0.000186073
0.000215276
0.000188284
0.000188137
0.000185919
0.000180942
0.0001502
0.000178998
0.000179027
0.000152152
0.00015208
0.000180991
0.000150061
0.000179027
0.000179047
0.000152105
0.000151702
0.000178979
0.000152067
0.000151944
0.000181025
0.00014964
0.00017899
0.000151647
0.000151864
0.000149922
0.000145342
0.000112389
0.000143204
0.000143085
0.000114712
0.000114831
0.000145175
0.000112647
0.000143157
0.000142801
0.000114764
0.000115164
0.000143017
0.000114884
0.000115037
0.000144833
0.000113164
0.000142942
0.000115198
0.000115067
0.000112908
0.000106863
7.48943e-05
0.000104689
0.000104986
7.68049e-05
7.69605e-05
0.000107236
7.50503e-05
0.000104774
0.000105452
7.67525e-05
7.6705e-05
0.000105204
7.69434e-05
7.67324e-05
0.000107811
7.46051e-05
0.000105282
7.67901e-05
7.67767e-05
7.46864e-05
7.051e-05
4.59801e-05
6.87953e-05
6.88048e-05
4.73312e-05
4.69566e-05
7.05829e-05
4.54477e-05
6.87084e-05
6.8397e-05
4.72968e-05
4.68279e-05
6.85373e-05
4.69087e-05
4.70866e-05
7.00529e-05
4.54037e-05
6.85324e-05
4.67552e-05
4.70507e-05
4.58398e-05
4.17767e-05
1.27789e-05
4.00664e-05
3.95771e-05
1.69671e-05
1.63889e-05
4.12444e-05
1.2176e-05
4.0078e-05
3.99054e-05
1.72986e-05
1.81679e-05
4.0228e-05
1.65781e-05
1.78596e-05
4.15405e-05
1.42078e-05
4.02208e-05
1.83061e-05
1.81351e-05
1.38953e-05
8.52609e-06
1.12875e-05
1.07617e-05
8.04314e-06
1.14505e-05
1.23812e-05
9.89117e-06
1.07641e-05
1.03597e-05
1.19228e-05
9.75731e-06
1.20208e-05
0.00362774
0.0036375
0.0036323
0.0036323
0.00365468
0.00364146
0.00367007
0.00363551
0.00365468
0.00364147
0.00363551
0.00367007
0.00364603
0.00367381
0.00367381
0.00358309
0.00360224
0.00361143
0.00357517
0.00357591
0.00357868
0.00358307
0.00360222
0.00361142
0.00357515
0.00360595
0.00360595
0.00360595
0.00356255
0.00356255
0.00356255
0.00356255
0.00358059
0.00360642
0.00360635
0.00358942
0.00360944
0.0035795
0.0035903
0.00357601
0.00357868
0.0035806
0.00360635
0.00360643
0.00358942
0.00360944
0.0035903
0.00357949
0.00361229
0.00361228
0.00358382
0.00357913
0.00357913
0.00353646
0.00355574
0.0035571
0.003535
0.00355465
0.00353456
0.00353646
0.00355573
0.0035571
0.00353499
0.0035506
0.00355059
0.00355059
0.00351301
0.00351301
0.003513
0.00351301
0.00353505
0.00355582
0.00355059
0.00353873
0.00355461
0.00353559
0.00353846
0.00355465
0.00353455
0.00353505
0.00355059
0.00355581
0.00353872
0.0035546
0.00353845
0.00353559
0.00355683
0.00355683
0.00353527
0.00353592
0.00353592
0.0034842
0.003503
0.00350407
0.00348317
0.00350264
0.00348289
0.0034842
0.003503
0.00350407
0.00348317
0.00349984
0.00349984
0.00349984
0.00346046
0.00346046
0.00346046
0.00346046
0.0034833
0.0035034
0.00349972
0.00348667
0.00350284
0.00348366
0.00348658
0.00350264
0.00348289
0.0034833
0.00349972
0.0035034
0.00348667
0.00350284
0.00348658
0.00348366
0.00350364
0.00350364
0.00348329
0.00348372
0.00348372
0.00343167
0.00345032
0.00345119
0.0034309
0.00345012
0.00343072
0.00343167
0.00345032
0.00345119
0.0034309
0.00344746
0.00344745
0.00344746
0.00340883
0.00340883
0.00340883
0.00340882
0.00343116
0.00345073
0.00344742
0.00343452
0.00345045
0.00343135
0.00343448
0.00345012
0.00343072
0.00343116
0.00344742
0.00345073
0.00343452
0.00345045
0.00343448
0.00343135
0.00345077
0.00345077
0.0034312
0.00343128
0.00343128
0.00338047
0.00339883
0.00339946
0.00337991
0.00339868
0.00337978
0.00338047
0.00339882
0.00339946
0.00337991
0.0033961
0.0033961
0.0033961
0.00335848
0.00335848
0.00335848
0.00335848
0.0033802
0.00339918
0.00339608
0.00338348
0.00339901
0.00338031
0.00338345
0.00339868
0.00337978
0.0033802
0.00339608
0.00339918
0.00338348
0.003399
0.00338345
0.0033803
0.00339916
0.00339916
0.00338027
0.00338022
0.00338022
0.00333082
0.00334878
0.00334923
0.00333043
0.00334866
0.0033303
0.00333082
0.00334878
0.00334923
0.00333042
0.00334612
0.00334612
0.00334612
0.0033096
0.0033096
0.0033096
0.0033096
0.00333071
0.00334907
0.0033461
0.00333388