/*--------------------------------*- C++ -*----------------------------------*\
| =========                 |                                                 |
| \\      /  F ield         | OpenFOAM: The Open Source CFD Toolbox           |
|  \\    /   O peration     | Version:  v2012                                 |
|   \\  /    A nd           | Website:  www.openfoam.com                      |
|    \\/     M anipulation  |                                                 |
\*---------------------------------------------------------------------------*/
FoamFile
{
    version     2.0;
    format      ascii;
    class       volScalarField;
    location    "400";
    object      epsilon;
}
// * * * * * * * * * * * * * * * * * * * * * * * * * * * * * * * * * * * * * //

dimensions      [0 2 -3 0 0 0 0];


internalField   nonuniform List<scalar> 
85864
(
4.9557e-07
4.97408e-07
4.97407e-07
4.99607e-07
4.45581e-07
4.53877e-07
4.53882e-07
4.63953e-07
4.0377e-07
4.18675e-07
4.18679e-07
4.39615e-07
3.68386e-07
3.88685e-07
3.88693e-07
4.177e-07
3.38036e-07
3.6218e-07
3.62184e-07
3.95922e-07
3.11659e-07
3.38293e-07
3.3826e-07
3.74131e-07
2.88474e-07
3.16604e-07
3.16557e-07
3.53236e-07
2.67911e-07
2.96939e-07
2.96913e-07
3.33691e-07
2.49553e-07
2.79243e-07
2.79235e-07
3.15994e-07
2.33095e-07
2.6351e-07
2.63508e-07
3.00482e-07
2.18309e-07
2.49748e-07
2.49745e-07
2.87645e-07
2.05019e-07
2.37953e-07
2.37949e-07
2.77765e-07
1.93086e-07
2.28131e-07
2.28128e-07
2.71101e-07
1.82398e-07
2.20287e-07
2.20286e-07
2.67484e-07
1.72865e-07
2.14423e-07
2.14423e-07
2.66946e-07
1.64411e-07
2.10548e-07
2.10551e-07
2.69727e-07
1.56974e-07
2.08668e-07
2.08677e-07
2.75859e-07
1.50502e-07
2.08795e-07
2.0881e-07
2.85596e-07
1.4495e-07
2.10987e-07
2.11009e-07
2.98516e-07
1.40282e-07
2.15254e-07
2.1528e-07
3.14643e-07
1.36467e-07
2.21614e-07
2.21644e-07
3.34601e-07
1.33484e-07
2.30083e-07
2.30119e-07
3.57579e-07
1.3131e-07
2.40654e-07
2.40688e-07
3.83712e-07
1.29928e-07
2.53296e-07
2.53334e-07
4.12561e-07
1.29327e-07
2.67968e-07
2.68009e-07
4.44125e-07
1.29508e-07
2.84602e-07
2.84647e-07
4.78134e-07
1.30447e-07
3.03112e-07
3.03162e-07
5.1333e-07
1.32148e-07
3.23392e-07
3.2345e-07
5.49684e-07
1.34609e-07
3.45323e-07
3.45395e-07
5.86478e-07
1.37831e-07
3.68773e-07
3.68856e-07
6.23909e-07
1.41815e-07
3.93593e-07
3.93684e-07
6.61446e-07
1.46566e-07
4.19627e-07
4.19731e-07
6.98535e-07
1.52089e-07
4.4671e-07
4.46824e-07
7.34954e-07
1.58388e-07
4.74676e-07
4.74804e-07
7.70604e-07
1.6547e-07
5.03351e-07
5.03483e-07
8.05447e-07
1.73336e-07
5.32566e-07
5.32692e-07
8.39172e-07
1.81987e-07
5.62146e-07
5.62259e-07
8.71744e-07
1.91419e-07
5.91913e-07
5.92019e-07
9.03167e-07
2.01623e-07
6.21707e-07
6.21805e-07
9.33357e-07
2.12587e-07
6.51366e-07
6.51457e-07
9.62381e-07
2.24287e-07
6.80734e-07
6.80821e-07
9.90179e-07
2.36699e-07
7.0968e-07
7.09772e-07
1.01677e-06
2.49788e-07
7.38088e-07
7.38188e-07
1.04231e-06
2.63513e-07
7.65849e-07
7.6596e-07
1.06671e-06
2.77826e-07
7.92882e-07
7.92992e-07
1.09158e-06
2.92671e-07
8.19097e-07
8.19206e-07
1.1139e-06
3.07982e-07
8.44434e-07
8.44537e-07
1.13509e-06
5.06394e-07
5.05554e-07
5.05552e-07
5.06413e-07
5.05553e-07
5.0555e-07
5.09645e-07
5.09644e-07
5.09644e-07
5.09645e-07
5.05557e-07
5.05546e-07
5.0639e-07
5.05558e-07
5.05545e-07
5.06385e-07
4.99629e-07
4.67403e-07
4.97411e-07
4.97421e-07
4.63838e-07
4.63869e-07
4.99612e-07
4.67399e-07
4.97408e-07
4.97419e-07
4.6384e-07
4.63835e-07
4.97412e-07
4.63834e-07
4.63842e-07
4.99618e-07
4.6739e-07
4.97413e-07
4.63838e-07
4.63867e-07
4.67425e-07
4.63907e-07
4.41553e-07
4.53882e-07
4.53916e-07
4.26889e-07
4.26931e-07
4.63911e-07
4.41566e-07
4.53885e-07
4.53877e-07
4.26891e-07
4.26893e-07
4.53891e-07
4.26893e-07
4.26907e-07
4.63895e-07
4.41559e-07
4.53923e-07
4.26897e-07
4.26957e-07
4.41624e-07
4.39546e-07
4.19302e-07
4.18671e-07
4.18712e-07
3.95808e-07
3.95839e-07
4.39567e-07
4.19323e-07
4.18673e-07
4.18678e-07
3.95805e-07
3.95822e-07
4.18691e-07
3.95808e-07
3.95828e-07
4.39555e-07
4.19325e-07
4.18736e-07
3.95816e-07
3.95849e-07
4.19312e-07
4.1764e-07
3.97568e-07
3.88687e-07
3.88715e-07
3.68546e-07
3.68567e-07
4.17639e-07
3.9758e-07
3.88683e-07
3.88705e-07
3.68537e-07
3.68569e-07
3.88707e-07
3.68538e-07
3.68562e-07
4.17651e-07
3.97547e-07
3.8872e-07
3.68546e-07
3.6855e-07
3.97437e-07
3.95876e-07
3.75923e-07
3.62191e-07
3.6221e-07
3.44065e-07
3.44074e-07
3.9588e-07
3.75901e-07
3.6218e-07
3.62215e-07
3.44046e-07
3.44085e-07
3.62203e-07
3.44049e-07
3.44057e-07
3.95876e-07
3.75782e-07
3.62181e-07
3.44026e-07
3.43983e-07
3.75637e-07
3.74259e-07
3.54733e-07
3.38311e-07
3.38317e-07
3.21854e-07
3.21852e-07
3.74278e-07
3.54747e-07
3.3829e-07
3.38329e-07
3.2183e-07
3.21866e-07
3.38295e-07
3.21834e-07
3.21823e-07
3.74203e-07
3.54669e-07
3.38206e-07
3.21785e-07
3.21705e-07
3.54583e-07
3.53441e-07
3.34938e-07
3.16626e-07
3.16622e-07
3.01695e-07
3.01685e-07
3.53405e-07
3.34937e-07
3.16602e-07
3.16634e-07
3.01669e-07
3.0169e-07
3.16594e-07
3.0167e-07
3.01667e-07
3.53288e-07
3.34887e-07
3.16478e-07
3.01638e-07
3.01574e-07
3.34895e-07
3.33787e-07
3.1697e-07
2.96964e-07
2.96954e-07
2.83511e-07
2.83499e-07
3.33749e-07
3.16978e-07
2.96938e-07
2.96956e-07
2.83483e-07
2.83495e-07
2.96938e-07
2.83483e-07
2.83491e-07
3.33732e-07
3.171e-07
2.96856e-07
2.83472e-07
2.83436e-07
3.16993e-07
3.16055e-07
3.01321e-07
2.79271e-07
2.79256e-07
2.67288e-07
2.67272e-07
3.16022e-07
3.01492e-07
2.79241e-07
2.79251e-07
2.67256e-07
2.67258e-07
2.79251e-07
2.67259e-07
2.67271e-07
3.15879e-07
3.01427e-07
2.79202e-07
2.67256e-07
2.67234e-07
3.01369e-07
3.00605e-07
2.88472e-07
2.6354e-07
2.63521e-07
2.53039e-07
2.53017e-07
3.00356e-07
2.88271e-07
2.63507e-07
2.63505e-07
2.53004e-07
2.52985e-07
2.63524e-07
2.53004e-07
2.53022e-07
3.0043e-07
2.88432e-07
2.63487e-07
2.53002e-07
2.52988e-07
2.88467e-07
2.87633e-07
2.78189e-07
2.49784e-07
2.4976e-07
2.40759e-07
2.40734e-07
2.87906e-07
2.78012e-07
2.49748e-07
2.49724e-07
2.40721e-07
2.40686e-07
2.49767e-07
2.40718e-07
2.40741e-07
2.87634e-07
2.7816e-07
2.49734e-07
2.40714e-07
2.40709e-07
2.78274e-07
2.77874e-07
2.7113e-07
2.37996e-07
2.3797e-07
2.30447e-07
2.30421e-07
2.77922e-07
2.71075e-07
2.37958e-07
2.37922e-07
2.30407e-07
2.30373e-07
2.37978e-07
2.30399e-07
2.30425e-07
2.77844e-07
2.71187e-07
2.37947e-07
2.30397e-07
2.30397e-07
2.71242e-07
2.71275e-07
2.67193e-07
2.28178e-07
2.28154e-07
2.22111e-07
2.22085e-07
2.71295e-07
2.67208e-07
2.28139e-07
2.28107e-07
2.22069e-07
2.22049e-07
2.28159e-07
2.22059e-07
2.22087e-07
2.71138e-07
2.67193e-07
2.28132e-07
2.22058e-07
2.22062e-07
2.67267e-07
2.67505e-07
2.66296e-07
2.20336e-07
2.20314e-07
2.15746e-07
2.15726e-07
2.67489e-07
2.66315e-07
2.20297e-07
2.20281e-07
2.15705e-07
2.15705e-07
2.20314e-07
2.15696e-07
2.15724e-07
2.6749e-07
2.66288e-07
2.20291e-07
2.15695e-07
2.15699e-07
2.66319e-07
2.66949e-07
2.68426e-07
2.14472e-07
2.14455e-07
2.11368e-07
2.11356e-07
2.66946e-07
2.68442e-07
2.14433e-07
2.14437e-07
2.11331e-07
2.11349e-07
2.14451e-07
2.11316e-07
2.11347e-07
2.66939e-07
2.68426e-07
2.14427e-07
2.11321e-07
2.11322e-07
2.68451e-07
2.69745e-07
2.73887e-07
2.10601e-07
2.1059e-07
2.08987e-07
2.08981e-07
2.69725e-07
2.73885e-07
2.10562e-07
2.10584e-07
2.08946e-07
2.0898e-07
2.10578e-07
2.08927e-07
2.0896e-07
2.69738e-07
2.73872e-07
2.10554e-07
2.08935e-07
2.08937e-07
2.73874e-07
2.75856e-07
2.82884e-07
2.08729e-07
2.08721e-07
2.08662e-07
2.08655e-07
2.75836e-07
2.82858e-07
2.08688e-07
2.08724e-07
2.08617e-07
2.08663e-07
2.08702e-07
2.08589e-07
2.08624e-07
2.75864e-07
2.82882e-07
2.08679e-07
2.08605e-07
2.08605e-07
2.82402e-07
2.85238e-07
2.9491e-07
2.08863e-07
2.0886e-07
2.10311e-07
2.10313e-07
2.85222e-07
2.94861e-07
2.08821e-07
2.08868e-07
2.1027e-07
2.10326e-07
2.08839e-07
2.10241e-07
2.10287e-07
2.85279e-07
2.95001e-07
2.08811e-07
2.1026e-07
2.10261e-07
2.94485e-07
2.98126e-07
3.10636e-07
2.11062e-07
2.11064e-07
2.14066e-07
2.1407e-07
2.98108e-07
3.10554e-07
2.1102e-07
2.11078e-07
2.14021e-07
2.14087e-07
2.11036e-07
2.13987e-07
2.1404e-07
2.98114e-07
3.10613e-07
2.11008e-07
2.14012e-07
2.14014e-07
3.1015e-07
3.14394e-07
3.29691e-07
2.15336e-07
2.15342e-07
2.19911e-07
2.19926e-07
3.14339e-07
3.29664e-07
2.15293e-07
2.15359e-07
2.19865e-07
2.1994e-07
2.15308e-07
2.19828e-07
2.19887e-07
3.14442e-07
3.29659e-07
2.1528e-07
2.19855e-07
2.19857e-07
3.28804e-07
3.3403e-07
3.51981e-07
2.21699e-07
2.21719e-07
2.27858e-07
2.27888e-07
3.34014e-07
3.51365e-07
2.21656e-07
2.21732e-07
2.27816e-07
2.27896e-07
2.21675e-07
2.27772e-07
2.27837e-07
3.34006e-07
3.5219e-07
2.21645e-07
2.27804e-07
2.27805e-07
3.51085e-07
3.56904e-07
3.77735e-07
2.30175e-07
2.30206e-07
2.37909e-07
2.37949e-07
3.57529e-07
3.76714e-07
2.30134e-07
2.30215e-07
2.37867e-07
2.37954e-07
2.30153e-07
2.37818e-07
2.3789e-07
3.57032e-07
3.77449e-07
2.30118e-07
2.37852e-07
2.37855e-07
3.76597e-07
3.83081e-07
4.05969e-07
2.4075e-07
2.4079e-07
2.50041e-07
2.5009e-07
3.83922e-07
4.0502e-07
2.40708e-07
2.40796e-07
2.49999e-07
2.50094e-07
2.40731e-07
2.49947e-07
2.50028e-07
3.83201e-07
4.06035e-07
2.4069e-07
2.49979e-07
2.49985e-07
4.05254e-07
4.11996e-07
4.36083e-07
2.53396e-07
2.53444e-07
2.64215e-07
2.64271e-07
4.12565e-07
4.35606e-07
2.53355e-07
2.53453e-07
2.64172e-07
2.64278e-07
2.53382e-07
2.64115e-07
2.64208e-07
4.12384e-07
4.36093e-07
2.53339e-07
2.64152e-07
2.64165e-07
4.36067e-07
4.43967e-07
4.69496e-07
2.68071e-07
2.68128e-07
2.80372e-07
2.80435e-07
4.44261e-07
4.69267e-07
2.68029e-07
2.68136e-07
2.80329e-07
2.80446e-07
2.68068e-07
2.80269e-07
2.80372e-07
4.44044e-07
4.69455e-07
2.68025e-07
2.80308e-07
2.80327e-07
4.6861e-07
4.77562e-07
5.0373e-07
2.8471e-07
2.84774e-07
2.98429e-07
2.985e-07
4.77439e-07
5.03545e-07
2.84671e-07
2.84788e-07
2.98385e-07
2.98513e-07
2.84716e-07
2.98316e-07
2.98437e-07
4.77748e-07
5.04033e-07
2.8467e-07
2.98363e-07
2.98386e-07
5.03273e-07
5.12713e-07
5.40219e-07
3.03227e-07
3.03299e-07
3.18291e-07
3.18363e-07
5.12933e-07
5.40308e-07
3.03187e-07
3.03316e-07
3.18242e-07
3.18379e-07
3.03241e-07
3.18166e-07
3.18303e-07
5.12749e-07
5.39783e-07
3.0319e-07
3.18216e-07
3.18244e-07
5.39376e-07
5.49105e-07
5.76811e-07
3.23522e-07
3.23595e-07
3.39837e-07
3.39907e-07
5.49128e-07
5.77071e-07
3.23477e-07
3.23615e-07
3.39781e-07
3.39926e-07
3.23539e-07
3.39695e-07
3.39854e-07
5.49301e-07
5.77254e-07
3.23481e-07
3.39758e-07
3.3979e-07
5.77284e-07
5.8642e-07
6.14685e-07
3.45472e-07
3.45538e-07
3.62938e-07
3.63007e-07
5.86247e-07
6.14643e-07
3.45417e-07
3.45564e-07
3.62873e-07
3.63026e-07
3.45489e-07
3.62778e-07
3.62951e-07
5.86415e-07
6.15628e-07
3.45426e-07
3.62852e-07
3.62884e-07
6.1469e-07
6.23994e-07
6.5203e-07
3.68939e-07
3.69001e-07
3.87445e-07
3.87514e-07
6.23824e-07
6.51856e-07
3.68877e-07
3.69029e-07
3.87374e-07
3.87534e-07
3.68955e-07
3.8727e-07
3.87459e-07
6.23595e-07
6.5287e-07
3.68885e-07
3.87351e-07
3.87387e-07
6.51979e-07
6.61507e-07
6.89603e-07
3.93775e-07
3.93832e-07
4.13202e-07
4.13274e-07
6.61392e-07
6.89059e-07
3.93705e-07
3.93862e-07
4.13125e-07
4.13289e-07
3.93789e-07
4.13012e-07
4.13223e-07
6.61028e-07
6.89735e-07
3.93715e-07
4.13108e-07
4.13146e-07
6.89827e-07
6.98694e-07
7.26249e-07
4.19817e-07
4.19888e-07
4.40045e-07
4.4012e-07
6.98689e-07
7.25924e-07
4.1974e-07
4.19907e-07
4.3996e-07
4.40143e-07
4.1984e-07
4.39849e-07
4.40077e-07
6.9867e-07
7.25663e-07
4.19762e-07
4.39954e-07
4.39993e-07
7.2707e-07
7.35264e-07
7.62525e-07
4.46905e-07
4.46981e-07
4.6781e-07
4.67886e-07
7.35109e-07
7.62679e-07
4.46827e-07
4.47005e-07
4.67726e-07
4.6792e-07
4.46941e-07
4.67608e-07
4.67856e-07
7.36168e-07
7.61628e-07
4.46856e-07
4.67729e-07
4.67759e-07
7.63181e-07
7.70932e-07
7.97617e-07
4.74875e-07
4.74952e-07
4.96325e-07
4.96407e-07
7.70477e-07
7.97911e-07
4.74795e-07
4.74985e-07
4.96239e-07
4.96446e-07
4.74929e-07
4.9612e-07
4.96389e-07
7.72381e-07
7.96681e-07
4.74827e-07
4.9625e-07
4.96277e-07
7.98194e-07
8.05526e-07
8.31962e-07
5.03555e-07
5.03633e-07
5.25422e-07
5.25512e-07
8.05277e-07
8.30656e-07
5.03473e-07
5.03669e-07
5.25335e-07
5.25536e-07
5.03621e-07
5.25219e-07
5.25492e-07
8.07276e-07
8.306e-07
5.03505e-07
5.25345e-07
5.25373e-07
8.32121e-07
8.39144e-07
8.64884e-07
5.32769e-07
5.32852e-07
5.54916e-07
5.55014e-07
8.39765e-07
8.62993e-07
5.32687e-07
5.32874e-07
5.54832e-07
5.55023e-07
5.32837e-07
5.54723e-07
5.54987e-07
8.40997e-07
8.63359e-07
5.32717e-07
5.54837e-07
5.54864e-07
8.64846e-07
8.71816e-07
8.96602e-07
5.62335e-07
5.62429e-07
5.8465e-07
5.84741e-07
8.73255e-07
8.94693e-07
5.62258e-07
5.62434e-07
5.84566e-07
5.84747e-07
5.62407e-07
5.84458e-07
5.8472e-07
8.73572e-07
8.94943e-07
5.62284e-07
5.84564e-07
5.8459e-07
8.96422e-07
9.03356e-07
9.27014e-07
5.92101e-07
5.92187e-07
6.14447e-07
6.14537e-07
9.04797e-07
9.25231e-07
5.92024e-07
5.9219e-07
6.1436e-07
6.1454e-07
5.92171e-07
6.14263e-07
6.14514e-07
9.04979e-07
9.25349e-07
5.92044e-07
6.1436e-07
6.14383e-07
9.26793e-07
9.33586e-07
9.55434e-07
6.21889e-07
6.21973e-07
6.44147e-07
6.44233e-07
9.35093e-07
9.54446e-07
6.2181e-07
6.21975e-07
6.44053e-07
6.44237e-07
6.21952e-07
6.43968e-07
6.44205e-07
9.35177e-07
9.54574e-07
6.21825e-07
6.44059e-07
6.44073e-07
9.55996e-07
9.63211e-07
9.82437e-07
6.51545e-07
6.5162e-07
6.73602e-07
6.73678e-07
9.64076e-07
9.82496e-07
6.51457e-07
6.51624e-07
6.73499e-07
6.7368e-07
6.51595e-07
6.73422e-07
6.73649e-07
9.64148e-07
9.82598e-07
6.5147e-07
6.73507e-07
6.73519e-07
9.83971e-07
9.9179e-07
1.00932e-06
6.80913e-07
6.80975e-07
7.02671e-07
7.02729e-07
9.91846e-07
1.00932e-06
6.8082e-07
6.80981e-07
7.02563e-07
7.02736e-07
6.80959e-07
7.02484e-07
7.0271e-07
9.91908e-07
1.00943e-06
6.80828e-07
7.02572e-07
7.02575e-07
1.01074e-06
1.01842e-06
1.03514e-06
7.09866e-07
7.09913e-07
7.31226e-07
7.31275e-07
1.01834e-06
1.03504e-06
7.09762e-07
7.09924e-07
7.31114e-07
7.31293e-07
7.09904e-07
7.31038e-07
7.3127e-07
1.01849e-06
1.03516e-06
7.09766e-07
7.31135e-07
7.31132e-07
1.03647e-06
1.04391e-06
1.05976e-06
7.38274e-07
7.38312e-07
7.59167e-07
7.59197e-07
1.04377e-06
1.0596e-06
7.38166e-07
7.38337e-07
7.59047e-07
7.59232e-07
7.38322e-07
7.58972e-07
7.59217e-07
1.04393e-06
1.05979e-06
7.38183e-07
7.59076e-07
7.5908e-07
1.06059e-06
1.06821e-06
1.08327e-06
7.66043e-07
7.66066e-07
7.86386e-07
7.86408e-07
1.06808e-06
1.08312e-06
7.65928e-07
7.66106e-07
7.86262e-07
7.86455e-07
7.66093e-07
7.86193e-07
7.86447e-07
1.06826e-06
1.08334e-06
7.65957e-07
7.86303e-07
7.86309e-07
1.08312e-06
1.09149e-06
1.10579e-06
7.93073e-07
7.93086e-07
8.12811e-07
8.12825e-07
1.09138e-06
1.10565e-06
7.92952e-07
7.93137e-07
8.12684e-07
8.12879e-07
7.93133e-07
8.12622e-07
8.12874e-07
1.09154e-06
1.10577e-06
7.92996e-07
8.12728e-07
8.1274e-07
1.10559e-06
1.11371e-06
1.12782e-06
8.19281e-07
8.19293e-07
8.38363e-07
8.3837e-07
1.1136e-06
1.12782e-06
8.1916e-07
8.1935e-07
8.38235e-07
8.3843e-07
8.19351e-07
8.38184e-07
8.38436e-07
1.11374e-06
1.12784e-06
8.19219e-07
8.3829e-07
8.38305e-07
1.12714e-06
1.13418e-06
1.14825e-06
8.44607e-07
8.44614e-07
8.62996e-07
8.62999e-07
1.13405e-06
1.14823e-06
8.44486e-07
8.44674e-07
8.62869e-07
8.63059e-07
8.44688e-07
8.62829e-07
8.63078e-07
1.13431e-06
1.14825e-06
8.44557e-07
8.62924e-07
8.62949e-07
1.14821e-06
5.35663e-07
5.35602e-07
5.35656e-07
5.35656e-07
5.34616e-07
5.35515e-07
5.33608e-07
5.35656e-07
5.3462e-07
5.35516e-07
5.35656e-07
5.33367e-07
5.35252e-07
5.36466e-07
5.36215e-07
1.1054e-06
3.86433e-06
9.38501e-07
4.59384e-06
1.25915e-05
1.67105e-05
1.10616e-06
3.86837e-06
9.39485e-07
4.5936e-06
4.95569e-07
4.95569e-07
4.95569e-07
4.57235e-07
4.57236e-07
4.57235e-07
4.57236e-07
5.43538e-07
1.23054e-06
4.95578e-07
4.85572e-07
5.26138e-07
1.21889e-06
4.82312e-07
1.26488e-05
1.66504e-05
5.43417e-07
4.95577e-07
1.23005e-06
4.85572e-07
5.25938e-07
4.82311e-07
1.21696e-06
2.52545e-06
2.51797e-06
4.84271e-07
2.38162e-06
2.37635e-06
1.42752e-06
5.58348e-06
1.32961e-06
6.13308e-06
2.13303e-05
2.31503e-05
1.42784e-06
5.58496e-06
1.32995e-06
6.13454e-06
4.45582e-07
4.45581e-07
4.45583e-07
4.13559e-07
4.13562e-07
4.1356e-07
4.13566e-07
5.87436e-07
1.20083e-06
4.46473e-07
4.44444e-07
5.74408e-07
1.20895e-06
4.35739e-07
2.13286e-05
2.31457e-05
5.87419e-07
4.46469e-07
1.20065e-06
4.44447e-07
5.7433e-07
4.35735e-07
1.21001e-06
2.30607e-06
2.30072e-06
4.53718e-07
2.34382e-06
2.33624e-06
1.65877e-06
6.91611e-06
1.59189e-06
7.32287e-06
2.46493e-05
2.49405e-05
1.65854e-06
6.91689e-06
1.59179e-06
7.324e-06
4.03774e-07
4.03772e-07
4.03778e-07
3.76712e-07
3.76716e-07
3.76715e-07
3.7672e-07
6.15285e-07
1.24836e-06
4.06612e-07
4.10778e-07
6.08322e-07
1.2702e-06
3.97798e-07
2.46553e-05
2.49472e-05
6.15469e-07
4.06613e-07
1.24673e-06
4.10783e-07
6.08241e-07
3.97802e-07
1.27069e-06
2.46247e-06
2.46064e-06
4.30299e-07
2.52096e-06
2.52057e-06
1.8069e-06
7.84608e-06
1.76763e-06
8.10255e-06
2.47356e-05
2.4433e-05
1.80852e-06
7.84739e-06
1.76722e-06
8.10415e-06
3.6839e-07
3.6839e-07
3.68394e-07
3.45215e-07
3.45218e-07
3.45221e-07
3.45221e-07
6.25729e-07
1.31769e-06
3.73549e-07
3.81778e-07
6.24506e-07
1.33955e-06
3.66098e-07
2.4736e-05
2.44367e-05
6.25728e-07
3.73552e-07
1.31715e-06
3.81788e-07
6.24338e-07
3.66102e-07
1.33934e-06
2.62579e-06
2.62626e-06
4.0839e-07
2.67187e-06
2.67239e-06
1.88963e-06
8.39433e-06
1.8684e-06
8.53079e-06
2.36832e-05
2.32668e-05
1.88817e-06
8.39541e-06
1.86947e-06
8.53204e-06
3.38039e-07
3.38043e-07
3.38041e-07
3.17928e-07
3.1793e-07
3.17935e-07
3.17926e-07
6.21149e-07
1.37612e-06
3.45296e-07
3.55988e-07
6.2482e-07
1.39248e-06
3.38816e-07
2.36865e-05
2.32718e-05
6.21096e-07
3.45297e-07
1.37576e-06
3.55985e-07
6.24854e-07
3.38817e-07
1.39191e-06
2.75897e-06
2.754e-06
3.86474e-07
2.80087e-06
2.7966e-06
1.9261e-06
8.66097e-06
1.91789e-06
8.71699e-06
2.24949e-05
2.21237e-05
1.92565e-06
8.66207e-06
1.91837e-06
8.71827e-06
3.11661e-07
3.11665e-07
3.11655e-07
2.94005e-07
2.94006e-07
2.94008e-07
2.93992e-07
6.07694e-07
1.41999e-06
3.20523e-07
3.32677e-07
6.14467e-07
1.43157e-06
3.1477e-07
2.24989e-05
2.213e-05
6.07611e-07
3.20518e-07
1.41936e-06
3.32636e-07
6.14374e-07
3.14764e-07
1.43096e-06
2.89338e-06
2.88189e-06
3.6497e-07
2.944e-06
2.93511e-06
1.94404e-06
8.75719e-06
1.94001e-06
8.76789e-06
2.14737e-05
2.11828e-05
1.94408e-06
8.75846e-06
1.94014e-06
8.76913e-06
2.88474e-07
2.88475e-07
2.88459e-07
2.7283e-07
2.7283e-07
2.7283e-07
2.72816e-07
5.90506e-07
1.45522e-06
2.98412e-07
3.11503e-07
5.98275e-07
1.46719e-06
2.93237e-07
2.14809e-05
2.11921e-05
5.9049e-07
2.98402e-07
1.45496e-06
3.11459e-07
5.98231e-07
2.9323e-07
1.46671e-06
3.05056e-06
3.04437e-06
3.44537e-07
3.10642e-06
3.10645e-06
1.9623e-06
8.76517e-06
1.95635e-06
8.75966e-06
2.06747e-05
2.04555e-05
1.96204e-06
8.7663e-06
1.95648e-06
8.76072e-06
2.67909e-07
2.6791e-07
2.67897e-07
2.53953e-07
2.53952e-07
2.53953e-07
2.53945e-07
5.74007e-07
1.49419e-06
2.78473e-07
2.92331e-07
5.8111e-07
1.50861e-06
2.73791e-07
2.06833e-05
2.04645e-05
5.74035e-07
2.78468e-07
1.49443e-06
2.9231e-07
5.81123e-07
2.73788e-07
1.50864e-06
3.22963e-06
3.22844e-06
3.25715e-07
3.29169e-06
3.29531e-06
1.99236e-06
8.74594e-06
1.98219e-06
8.73932e-06
2.00751e-05
1.9913e-05
1.99239e-06
8.74691e-06
1.98259e-06
8.74026e-06
2.49551e-07
2.49553e-07
2.49546e-07
2.37044e-07
2.37042e-07
2.37045e-07
2.3704e-07
5.61428e-07
1.54173e-06
2.60419e-07
2.75126e-07
5.66673e-07
1.56125e-06
2.56178e-07
2.00795e-05
1.99178e-05
5.61425e-07
2.60417e-07
1.54171e-06
2.75121e-07
5.66684e-07
2.56178e-07
1.56147e-06
3.4252e-06
3.42547e-06
3.08887e-07
3.49498e-06
3.49661e-06
2.04328e-06
8.73058e-06
2.02619e-06
8.72872e-06
1.96361e-05
1.95194e-05
2.0435e-06
8.73153e-06
2.02623e-06
8.72979e-06
2.33092e-07
2.33094e-07
2.33091e-07
2.21858e-07
2.21855e-07
2.21855e-07
2.21855e-07
5.55448e-07
1.60396e-06
2.44075e-07
2.59885e-07
5.57559e-07
1.62514e-06
2.40243e-07
1.96363e-05
1.95213e-05
5.55412e-07
2.44071e-07
1.60275e-06
2.59884e-07
5.57514e-07
2.4024e-07
1.62738e-06
3.63375e-06
3.63276e-06
2.94632e-07
3.7009e-06
3.70452e-06
2.11782e-06
8.72854e-06
2.09228e-06
8.73169e-06
1.93208e-05
1.92418e-05
2.11784e-06
8.72978e-06
2.09216e-06
8.73299e-06
2.18305e-07
2.18304e-07
2.18306e-07
2.08208e-07
2.08204e-07
2.082e-07
2.08205e-07
5.56786e-07
1.67999e-06
2.2933e-07
2.46615e-07
5.55888e-07
1.70534e-06
2.25884e-07
1.93223e-05
1.92392e-05
5.56758e-07
2.29322e-07
1.67817e-06
2.46612e-07
5.55838e-07
2.25879e-07
1.70736e-06
3.84289e-06
3.84161e-06
2.83087e-07
3.90898e-06
3.91237e-06
2.21776e-06
8.73895e-06
2.18368e-06
8.74583e-06
1.91e-05
1.90467e-05
2.2176e-06
8.74033e-06
2.18343e-06
8.74722e-06
2.05014e-07
2.05009e-07
2.05016e-07
1.95947e-07
1.95942e-07
1.95935e-07
1.95944e-07
5.66119e-07
1.76888e-06
2.16107e-07
2.35311e-07
5.62558e-07
1.79833e-06
2.13032e-07
1.91024e-05
1.90445e-05
5.66046e-07
2.16099e-07
1.76703e-06
2.35308e-07
5.62451e-07
2.13027e-07
1.80045e-06
4.04637e-06
4.04574e-06
2.74338e-07
4.10936e-06
4.11281e-06
2.34191e-06
8.75773e-06
2.30041e-06
8.76634e-06
1.89462e-05
1.89107e-05
2.34257e-06
8.75919e-06
2.30015e-06
8.76776e-06
1.93081e-07
1.93073e-07
1.93083e-07
1.84957e-07
1.84951e-07
1.84943e-07
1.84954e-07
5.85245e-07
1.86923e-06
2.04345e-07
2.25982e-07
5.78363e-07
1.90179e-06
2.01625e-07
1.89499e-05
1.89094e-05
5.85154e-07
2.04338e-07
1.86733e-06
2.2598e-07
5.78368e-07
2.01622e-07
1.90435e-06
4.23743e-06
4.23791e-06
2.68911e-07
4.29592e-06
4.29916e-06
2.48894e-06
8.77936e-06
2.44054e-06
8.7881e-06
1.88381e-05
1.88147e-05
2.49137e-06
8.78096e-06
2.43884e-06
8.78968e-06
1.82392e-07
1.82385e-07
1.82395e-07
1.75142e-07
1.75136e-07
1.75131e-07
1.75138e-07
6.14327e-07
1.97651e-06
1.93989e-07
2.18631e-07
6.04022e-07
2.01508e-06
1.91613e-07
1.88426e-05
1.88138e-05
6.14926e-07
1.93984e-07
1.97603e-06
2.18629e-07
6.03658e-07
1.91612e-07
2.01523e-06
4.41164e-06
4.41332e-06
2.66417e-07
4.46358e-06
4.46542e-06
2.6529e-06
8.8005e-06
2.59941e-06
8.80864e-06
1.87602e-05
1.87423e-05
2.65541e-06
8.80223e-06
2.59751e-06
8.81042e-06
1.72859e-07
1.72854e-07
1.72861e-07
1.66424e-07
1.66419e-07
1.66417e-07
1.66421e-07
6.53632e-07
2.0903e-06
1.84998e-07
2.13259e-07
6.40033e-07
2.12998e-06
1.82955e-07
1.87646e-05
1.87432e-05
6.54094e-07
1.84993e-07
2.09191e-06
2.1326e-07
6.39454e-07
1.82954e-07
2.12815e-06
4.56485e-06
4.56747e-06
2.66978e-07
4.61172e-06
4.61221e-06
2.82689e-06
8.8199e-06
2.77074e-06
8.82727e-06
1.87022e-05
1.86864e-05
2.82922e-06
8.82179e-06
2.76901e-06
8.82919e-06
1.64406e-07
1.64404e-07
1.64408e-07
1.58739e-07
1.58734e-07
1.58735e-07
1.58735e-07
7.03162e-07
2.20625e-06
1.7733e-07
2.09873e-07
6.8635e-07
2.24577e-06
1.75611e-07
1.87042e-05
1.86879e-05
7.04081e-07
1.77324e-07
2.20651e-06
2.09879e-07
6.85708e-07
1.75611e-07
2.24613e-06
4.69742e-06
4.69942e-06
2.70752e-07
4.73767e-06
4.73979e-06
3.00385e-06
8.8375e-06
2.94542e-06
8.84427e-06
1.8653e-05
1.864e-05
3.00417e-06
8.83953e-06
2.94531e-06
8.84627e-06
1.5697e-07
1.5697e-07
1.5697e-07
1.52031e-07
1.52027e-07
1.5203e-07
1.52028e-07
7.62464e-07
2.32071e-06
1.70956e-07
2.08488e-07
7.42677e-07
2.35925e-06
1.69558e-07
1.86544e-05
1.86414e-05
7.63343e-07
1.7095e-07
2.32104e-06
2.08499e-07
7.42122e-07
1.69557e-07
2.35934e-06
4.80953e-06
4.81276e-06
2.77708e-07
4.84349e-06
4.8439e-06
3.17289e-06
8.85375e-06
3.11871e-06
8.86008e-06
1.861e-05
1.85984e-05
3.17302e-06
8.85582e-06
3.11876e-06
8.86209e-06
1.50498e-07
1.50501e-07
1.50498e-07
1.46253e-07
1.46249e-07
1.46253e-07
1.46249e-07
8.3098e-07
2.43267e-06
1.65861e-07
2.09145e-07
8.08255e-07
2.46602e-06
1.64779e-07
1.86113e-05
1.86e-05
8.31456e-07
1.65856e-07
2.43137e-06
2.09165e-07
8.07575e-07
1.64778e-07
2.46804e-06
4.9028e-06
4.90495e-06
2.87981e-07
4.93093e-06
4.93282e-06
3.32914e-06
8.86899e-06
3.28011e-06
8.87492e-06
1.85708e-05
1.85607e-05
3.3301e-06
8.87111e-06
3.27973e-06
8.87703e-06
1.44946e-07
1.4495e-07
1.44946e-07
1.41368e-07
1.41365e-07
1.4137e-07
1.41365e-07
9.06705e-07
2.53563e-06
1.62038e-07
2.11854e-07
8.81638e-07
2.56931e-06
1.6127e-07
1.85723e-05
1.8562e-05
9.07221e-07
1.62033e-07
2.53546e-06
2.11879e-07
8.81093e-07
1.61269e-07
2.56937e-06
4.97958e-06
4.98275e-06
3.0184e-07
5.00267e-06
5.00312e-06
3.46725e-06
8.88346e-06
3.42461e-06
8.88904e-06
1.85349e-05
1.85253e-05
3.46856e-06
8.88552e-06
3.42427e-06
8.89105e-06
1.40278e-07
1.40284e-07
1.40278e-07
1.37345e-07
1.37342e-07
1.37348e-07
1.37342e-07
9.87964e-07
2.6316e-06
1.59491e-07
2.16644e-07
9.61154e-07
2.66266e-06
1.59032e-07
1.85362e-05
1.85267e-05
9.88389e-07
1.59486e-07
2.63176e-06
2.16674e-07
9.6058e-07
1.59032e-07
2.66276e-06
5.04238e-06
5.04566e-06
3.19202e-07
5.06127e-06
5.06165e-06
3.58542e-06
8.8969e-06
3.54842e-06
8.90218e-06
1.85009e-05
1.84919e-05
3.58571e-06
8.89889e-06
3.54875e-06
8.90415e-06
1.36465e-07
1.36471e-07
1.36465e-07
1.34157e-07
1.34154e-07
1.34161e-07
1.34154e-07
1.07243e-06
2.71924e-06
1.58223e-07
2.23538e-07
1.04431e-06
2.74712e-06
1.58075e-07
1.85024e-05
1.84938e-05
1.07274e-06
1.58222e-07
2.71932e-06
2.23571e-07
1.04417e-06
1.58076e-07
2.74749e-06
5.0937e-06
5.09692e-06
3.39838e-07
5.10906e-06
5.10952e-06
3.68114e-06
8.90944e-06
3.65231e-06
8.91414e-06
1.84693e-05
1.84613e-05
3.6812e-06
8.91091e-06
3.65262e-06
8.9164e-06
1.33481e-07
1.33488e-07
1.33481e-07
1.31784e-07
1.31782e-07
1.31789e-07
1.31782e-07
1.15742e-06
2.79793e-06
1.58228e-07
2.32534e-07
1.12986e-06
2.82286e-06
1.58435e-07
1.84711e-05
1.84632e-05
1.15787e-06
1.58228e-07
2.79807e-06
2.32571e-07
1.12963e-06
1.58442e-07
2.82308e-06
5.13565e-06
5.13888e-06
3.6362e-07
5.14818e-06
5.14871e-06
3.75787e-06
8.92015e-06
3.73544e-06
8.92516e-06
1.84402e-05
1.8433e-05
3.75818e-06
8.92217e-06
3.73575e-06
8.92711e-06
1.31307e-07
1.31315e-07
1.31307e-07
1.30209e-07
1.30207e-07
1.30215e-07
1.30207e-07
1.2415e-06
2.86787e-06
1.59553e-07
2.43625e-07
1.21411e-06
2.88999e-06
1.60092e-07
1.8442e-05
1.84348e-05
1.2415e-06
1.59548e-07
2.86803e-06
2.43662e-07
1.21419e-06
1.601e-07
2.89019e-06
5.17013e-06
5.17336e-06
3.9057e-07
5.17996e-06
5.18167e-06
3.81848e-06
8.93016e-06
3.80065e-06
8.93456e-06
1.84135e-05
1.8407e-05
3.81865e-06
8.93209e-06
3.80031e-06
8.93653e-06
1.29926e-07
1.29934e-07
1.29926e-07
1.29419e-07
1.29418e-07
1.29426e-07
1.29419e-07
1.3224e-06
2.92972e-06
1.62206e-07
2.5678e-07
1.29612e-06
2.94925e-06
1.6308e-07
1.84152e-05
1.84088e-05
1.32226e-06
1.62199e-07
2.92986e-06
2.56816e-07
1.29623e-06
1.63088e-07
2.94936e-06
5.19886e-06
5.20157e-06
4.20119e-07
5.20651e-06
5.20845e-06
3.86358e-06
8.93878e-06
3.85084e-06
8.94264e-06
1.83891e-05
1.83833e-05
3.86392e-06
8.94079e-06
3.85098e-06
8.94462e-06
1.29325e-07
1.29334e-07
1.29326e-07
1.29393e-07
1.29392e-07
1.29401e-07
1.29395e-07
1.39847e-06
2.98419e-06
1.66201e-07
2.7195e-07
1.37375e-06
3.00139e-06
1.67417e-07
1.83907e-05
1.83851e-05
1.39839e-06
1.66193e-07
2.98431e-06
2.71988e-07
1.37401e-06
1.67425e-07
3.00143e-06
5.22258e-06
5.22502e-06
4.52115e-07
5.22898e-06
5.23053e-06
3.8991e-06
8.9463e-06
3.88843e-06
8.94959e-06
1.8367e-05
1.83621e-05
3.89942e-06
8.94835e-06
3.88869e-06
8.95165e-06
1.29505e-07
1.29516e-07
1.29509e-07
1.3014e-07
1.30139e-07
1.30149e-07
1.30142e-07
1.46882e-06
3.03217e-06
1.71558e-07
2.89061e-07
1.44636e-06
3.04729e-06
1.73115e-07
1.83685e-05
1.83637e-05
1.46894e-06
1.71552e-07
3.03224e-06
2.89101e-07
1.44627e-06
1.73126e-07
3.04733e-06
5.24255e-06
5.24475e-06
4.86289e-07
5.24797e-06
5.24917e-06
3.92554e-06
8.95288e-06
3.91728e-06
8.95575e-06
1.83472e-05
1.8343e-05
3.92583e-06
8.95493e-06
3.91757e-06
8.95774e-06
1.30445e-07
1.30456e-07
1.3045e-07
1.31651e-07
1.31649e-07
1.31661e-07
1.31655e-07
1.53318e-06
3.07452e-06
1.78284e-07
3.08026e-07
1.51278e-06
3.08783e-06
1.80183e-07
1.83486e-05
1.83445e-05
1.53288e-06
1.7828e-07
3.07457e-06
3.08072e-07
1.51299e-06
1.80198e-07
3.08792e-06
5.25954e-06
5.2618e-06
5.2163e-07
5.26406e-06
5.26568e-06
3.94575e-06
8.95876e-06
3.9394e-06
8.96138e-06
1.83295e-05
1.8326e-05
3.94598e-06
8.96094e-06
3.93963e-06
8.96328e-06
1.32145e-07
1.32159e-07
1.32153e-07
1.33922e-07
1.33918e-07
1.33933e-07
1.33927e-07
1.59169e-06
3.11196e-06
1.86378e-07
3.28729e-07
1.57286e-06
3.12376e-06
1.88619e-07
1.83308e-05
1.83274e-05
1.5913e-06
1.86376e-07
3.11204e-06
3.28787e-07
1.5734e-06
1.88638e-07
3.12387e-06
5.27421e-06
5.27626e-06
5.5867e-07
5.27787e-06
5.27971e-06
3.96136e-06
8.96439e-06
3.95654e-06
8.96668e-06
1.83139e-05
1.83113e-05
3.96155e-06
8.96639e-06
3.95668e-06
8.96882e-06
1.34605e-07
1.34621e-07
1.34615e-07
1.36953e-07
1.36947e-07
1.36965e-07
1.36959e-07
1.6439e-06
3.14527e-06
1.9583e-07
3.51053e-07
1.62708e-06
3.15576e-06
1.98411e-07
1.83151e-05
1.83125e-05
1.64356e-06
1.95834e-07
3.14537e-06
3.51122e-07
1.6276e-06
1.98437e-07
3.15591e-06
5.28699e-06
5.28895e-06
5.95598e-07
5.29009e-06
5.29199e-06
3.97348e-06
8.96976e-06
3.97007e-06
8.97201e-06
1.83006e-05
1.82988e-05
3.97374e-06
8.97179e-06
3.97007e-06
8.97405e-06
1.37825e-07
1.37844e-07
1.37839e-07
1.40747e-07
1.4074e-07
1.4076e-07
1.40754e-07
1.69061e-06
3.17508e-06
2.06624e-07
3.74858e-07
1.67575e-06
3.18449e-06
2.09539e-07
1.83017e-05
1.82999e-05
1.69044e-06
2.06637e-07
3.1752e-06
3.74938e-07
1.67609e-06
2.09573e-07
3.18466e-06
5.29833e-06
5.30031e-06
6.33205e-07
5.30111e-06
5.30304e-06
3.98355e-06
8.97521e-06
3.98084e-06
8.97753e-06
1.82896e-05
1.82886e-05
3.98378e-06
8.97722e-06
3.98091e-06
8.97957e-06
1.41807e-07
1.41829e-07
1.41824e-07
1.45306e-07
1.45297e-07
1.4532e-07
1.45316e-07
1.73218e-06
3.202e-06
2.18735e-07
3.99996e-07
1.71942e-06
3.21051e-06
2.21977e-07
1.82906e-05
1.82897e-05
1.73219e-06
2.18751e-07
3.20211e-06
4.00086e-07
1.71953e-06
2.22014e-07
3.21066e-06
5.30865e-06
5.31065e-06
6.7074e-07
5.31126e-06
5.31317e-06
3.992e-06
8.9809e-06
3.98977e-06
8.98339e-06
1.82809e-05
1.82808e-05
3.99214e-06
8.98294e-06
3.98981e-06
8.98545e-06
1.46557e-07
1.46582e-07
1.46578e-07
1.50635e-07
1.50625e-07
1.50652e-07
1.50648e-07
1.76972e-06
3.2265e-06
2.32129e-07
4.26303e-07
1.75834e-06
3.23427e-06
2.35684e-07
1.82819e-05
1.82818e-05
1.76978e-06
2.32153e-07
3.22661e-06
4.26405e-07
1.75841e-06
2.3573e-07
3.23443e-06
5.31832e-06
5.3203e-06
7.08568e-07
5.32077e-06
5.32268e-06
3.99922e-06
8.98674e-06
3.99741e-06
8.98997e-06
1.82747e-05
1.82754e-05
3.99939e-06
8.98913e-06
3.99746e-06
8.99182e-06
1.52079e-07
1.52106e-07
1.52104e-07
1.56739e-07
1.56729e-07
1.56759e-07
1.56757e-07
1.80369e-06
3.24927e-06
2.46761e-07
4.53624e-07
1.79331e-06
3.25575e-06
2.50618e-07
1.82755e-05
1.82764e-05