/*--------------------------------*- C++ -*----------------------------------*\
| =========                 |                                                 |
| \\      /  F ield         | OpenFOAM: The Open Source CFD Toolbox           |
|  \\    /   O peration     | Version:  v2012                                 |
|   \\  /    A nd           | Website:  www.openfoam.com                      |
|    \\/     M anipulation  |                                                 |
\*---------------------------------------------------------------------------*/
FoamFile
{
    version     2.0;
    format      ascii;
    class       volScalarField;
    location    "400";
    object      nut;
}
// * * * * * * * * * * * * * * * * * * * * * * * * * * * * * * * * * * * * * //

dimensions      [0 2 -1 0 0 0 0];


internalField   nonuniform List<scalar> 
85864
(
0.000233972
0.000233083
0.000233084
0.000233409
0.000232523
0.000227709
0.00022771
0.0002237
0.000230493
0.000220182
0.000220177
0.000208902
0.000227761
0.000211513
0.0002115
0.000193654
0.000224381
0.000202501
0.000202488
0.000179624
0.000220488
0.000193634
0.000193617
0.000167282
0.000216233
0.000185151
0.000185129
0.000156538
0.000211746
0.000177124
0.0001771
0.000147189
0.000207132
0.000169592
0.000169566
0.000138964
0.000202472
0.000162525
0.000162502
0.00013171
0.000197819
0.000155869
0.00015585
0.000125114
0.000193208
0.000149569
0.000149554
0.000118995
0.000188618
0.000143585
0.000143571
0.000113247
0.000184086
0.000137862
0.000137848
0.00010792
0.000179641
0.000132359
0.000132347
0.000102991
0.000175271
0.000127067
0.000127057
9.83249e-05
0.000170967
0.000122008
0.000121999
9.41314e-05
0.000166713
0.000117211
0.000117204
9.04013e-05
0.00016251
0.000112705
0.000112695
8.74406e-05
0.000158333
0.000108547
0.000108536
8.51103e-05
0.000154175
0.000104789
0.000104778
8.33173e-05
0.000150045
0.000101454
0.000101443
8.22566e-05
0.000145955
9.86088e-05
9.85997e-05
8.17708e-05
0.000141925
9.62746e-05
9.62638e-05
8.18493e-05
0.000137982
9.44561e-05
9.44474e-05
8.24043e-05
0.000134143
9.31563e-05
9.31472e-05
8.32926e-05
0.000130463
9.23629e-05
9.23574e-05
8.46711e-05
0.000126967
9.20552e-05
9.20538e-05
8.63822e-05
0.000123693
9.22048e-05
9.22059e-05
8.84069e-05
0.000120686
9.27818e-05
9.27843e-05
9.07885e-05
0.000117947
9.37521e-05
9.37535e-05
9.31643e-05
0.00011553
9.50775e-05
9.50787e-05
9.55104e-05
0.000113449
9.67222e-05
9.67239e-05
9.81211e-05
0.000111719
9.86493e-05
9.86494e-05
0.000100625
0.000110351
0.000100822
0.000100819
0.000103219
0.000109349
0.000103209
0.0001032
0.000105927
0.000108714
0.000105776
0.000105765
0.000108514
0.000108443
0.000108495
0.000108483
0.000111202
0.00010853
0.000111342
0.000111328
0.00011387
0.000108963
0.000114286
0.000114274
0.000116649
0.000109732
0.000117313
0.000117302
0.000119201
0.00011082
0.000120406
0.000120397
0.000121852
0.000112212
0.00012355
0.000123541
0.000124541
0.00011389
0.000126722
0.000126716
0.000127139
0.000115834
0.000129909
0.000129904
0.000129536
0.000118023
0.000133095
0.00013309
0.000132006
0.000120437
0.00013627
0.000136266
0.000134522
0.000234269
0.000234459
0.00023446
0.000234261
0.000234459
0.00023446
0.000234275
0.000234275
0.000234275
0.000234275
0.000234457
0.000234462
0.000234271
0.000234457
0.000234463
0.000234273
0.000233399
0.000226106
0.000233082
0.000233077
0.000229286
0.000229267
0.000233406
0.000226101
0.000233083
0.000233078
0.000229285
0.000229287
0.000233082
0.000229287
0.000229284
0.000233405
0.000226106
0.000233081
0.000229286
0.000229266
0.000226078
0.00022375
0.000212103
0.00022771
0.000227687
0.000222217
0.000222183
0.000223737
0.000212085
0.000227708
0.00022771
0.000222214
0.000222208
0.000227704
0.000222208
0.000222201
0.000223744
0.000212089
0.000227675
0.000222206
0.000222146
0.000212026
0.000208974
0.000196942
0.00022019
0.000220156
0.000213739
0.000213707
0.000208952
0.00019693
0.000220188
0.000220182
0.000213741
0.000213726
0.000220173
0.000213738
0.000213723
0.000208961
0.000196931
0.000220124
0.000213726
0.0002137
0.000196934
0.000193685
0.000182771
0.000211509
0.000211478
0.00020474
0.000204714
0.000193683
0.000182769
0.000211514
0.00021149
0.00020475
0.000204694
0.000211495
0.000204753
0.000204729
0.000193679
0.00018277
0.000211479
0.00020474
0.000204732
0.000182821
0.000179663
0.000170184
0.000202485
0.00020246
0.000195798
0.000195779
0.000179663
0.000170198
0.000202496
0.000202429
0.000195811
0.000195728
0.000202474
0.000195819
0.000195788
0.000179647
0.000170194
0.000202481
0.000195803
0.0001958
0.000170222
0.000167339
0.000159241
0.000193611
0.000193592
0.000187204
0.000187189
0.00016733
0.000159243
0.000193624
0.000193539
0.000187219
0.000187138
0.000193599
0.00018723
0.00018719
0.000167298
0.000159236
0.00019361
0.000187209
0.0001872
0.000159226
0.000156559
0.000149634
0.000185124
0.00018511
0.000179055
0.000179045
0.000156572
0.000149662
0.000185139
0.000185061
0.000179073
0.000179
0.000185109
0.000179084
0.000179038
0.00015656
0.00014965
0.000185118
0.000179061
0.000179048
0.000149636
0.000147221
0.000141193
0.000177094
0.000177085
0.000171397
0.00017139
0.000147214
0.000141195
0.000177113
0.000177041
0.000171418
0.000171346
0.000177078
0.000171429
0.00017138
0.000147185
0.000141107
0.000177087
0.000171403
0.000171389
0.000141145
0.000138963
0.000133663
0.00016956
0.000169554
0.000164219
0.000164212
0.000138977
0.000133589
0.000169581
0.00016951
0.000164242
0.000164169
0.000169544
0.000164251
0.000164203
0.000139006
0.00013358
0.000169555
0.000164227
0.000164219
0.000133617
0.000131672
0.000126748
0.000162494
0.000162488
0.000157465
0.000157458
0.000131785
0.000126832
0.000162517
0.000162444
0.000157489
0.000157421
0.000162479
0.000157497
0.000157452
0.000131717
0.000126727
0.000162497
0.000157476
0.000157476
0.000126733
0.000125134
0.00012048
0.000155837
0.000155831
0.00015108
0.000151074
0.000125013
0.000120556
0.000155862
0.000155795
0.000151106
0.000151047
0.000155825
0.000151113
0.00015107
0.000125097
0.000120458
0.00015585
0.000151097
0.000151098
0.000120427
0.000118964
0.00011448
0.000149536
0.00014953
0.000145017
0.000145012
0.000118935
0.000114501
0.000149562
0.000149505
0.000145045
0.000144994
0.000149526
0.000145053
0.00014501
0.000118941
0.000114428
0.000149555
0.000145038
0.00014504
0.000114419
0.000113188
0.000108825
0.000143549
0.000143543
0.000139231
0.000139227
0.000113176
0.000108817
0.000143577
0.000143528
0.00013926
0.000139214
0.000143541
0.00013927
0.000139227
0.000113218
0.000108805
0.000143571
0.000139255
0.000139257
0.000108783
0.000107923
0.000103641
0.000137825
0.000137818
0.00013368
0.000133673
0.000107927
0.00010363
0.000137852
0.000137806
0.000133708
0.00013366
0.00013782
0.000133716
0.000133676
0.00010791
0.00010363
0.000137849
0.000133704
0.000133706
0.000103622
0.000103002
9.90415e-05
0.000132322
0.000132315
0.000128338
0.000128329
0.000102998
9.90093e-05
0.00013235
0.000132302
0.000128363
0.000128313
0.000132319
0.000128373
0.000128334
0.000102992
9.90136e-05
0.000132348
0.00012836
0.000128363
9.90056e-05
9.8322e-05
9.48162e-05
0.000127032
0.000127023
0.000123221
0.00012321
9.83543e-05
9.4793e-05
0.000127057
0.000127009
0.000123246
0.000123198
0.000127031
0.000123256
0.000123221
9.83407e-05
9.47989e-05
0.000127059
0.000123246
0.000123249
9.48087e-05
9.41456e-05
9.11868e-05
0.000121973
0.000121964
0.000118325
0.000118316
9.41272e-05
9.1179e-05
0.000121997
0.000121951
0.000118351
0.000118305
0.000121974
0.000118363
0.00011833
9.41253e-05
9.11774e-05
0.000122001
0.000118353
0.000118355
9.13271e-05
9.05303e-05
8.81583e-05
0.000117176
0.000117167
0.000113756
0.000113742
9.05233e-05
8.81464e-05
0.0001172
0.000117157
0.000113777
0.000113734
0.000117176
0.000113787
0.000113752
9.05113e-05
8.81135e-05
0.000117205
0.000113778
0.00011378
8.82814e-05
8.75723e-05
8.56299e-05
0.00011267
0.000112659
0.000109501
0.000109488
8.7575e-05
8.56194e-05
0.000112692
0.00011265
0.000109523
0.000109481
0.00011267
0.000109533
0.000109498
8.75787e-05
8.55824e-05
0.000112698
0.000109522
0.000109525
8.58153e-05
8.52397e-05
8.37362e-05
0.000108514
0.000108503
0.000105632
0.000105618
8.52274e-05
8.37198e-05
0.000108534
0.000108496
0.000105653
0.000105614
0.000108514
0.000105663
0.00010563
8.52512e-05
8.37251e-05
0.000108541
0.000105652
0.000105656
8.40815e-05
8.35521e-05
8.25411e-05
0.000104757
0.000104744
0.00010221
0.000102193
8.35467e-05
8.2672e-05
0.000104776
0.00010474
0.000102227
0.00010219
0.000104758
0.000102238
0.000102209
8.35546e-05
8.24822e-05
0.000104783
0.000102227
0.000102232
8.28966e-05
8.2512e-05
8.18756e-05
0.000101424
0.000101409
9.92469e-05
9.9227e-05
8.23383e-05
8.20926e-05
0.00010144
0.000101406
9.92604e-05
9.9226e-05
0.000101426
9.92705e-05
9.92448e-05
8.24731e-05
8.1929e-05
0.00010145
9.92606e-05
9.92682e-05
8.23049e-05
8.20074e-05
8.18454e-05
9.8583e-05
9.85653e-05
9.67855e-05
9.67643e-05
8.17466e-05
8.21825e-05
9.85962e-05
9.85641e-05
9.67965e-05
9.67643e-05
9.85842e-05
9.68073e-05
9.67842e-05
8.19792e-05
8.19901e-05
9.86097e-05
9.67978e-05
9.68071e-05
8.21898e-05
8.20732e-05
8.26013e-05
9.62491e-05
9.62327e-05
9.48393e-05
9.48218e-05
8.17906e-05
8.27025e-05
9.6261e-05
9.62304e-05
9.48499e-05
9.48199e-05
9.62527e-05
9.48617e-05
9.48417e-05
8.18405e-05
8.2619e-05
9.62763e-05
9.48517e-05
9.48621e-05
8.26481e-05
8.2341e-05
8.34366e-05
9.44335e-05
9.44182e-05
9.34111e-05
9.33972e-05
8.22826e-05
8.34936e-05
9.44441e-05
9.44163e-05
9.34208e-05
9.33912e-05
9.44375e-05
9.34328e-05
9.34176e-05
8.23361e-05
8.34468e-05
9.4459e-05
9.34221e-05
9.34366e-05
8.36858e-05
8.33059e-05
8.48544e-05
9.31347e-05
9.31225e-05
9.24964e-05
9.24812e-05
8.33315e-05
8.46301e-05
9.31444e-05
9.31173e-05
9.25047e-05
9.24762e-05
9.31451e-05
9.25149e-05
9.25064e-05
8.32752e-05
8.47987e-05
9.31634e-05
9.25062e-05
9.25213e-05
8.50047e-05
8.46907e-05
8.6427e-05
9.23454e-05
9.23322e-05
9.20723e-05
9.20561e-05
8.48293e-05
8.6397e-05
9.23537e-05
9.23275e-05
9.20806e-05
9.20537e-05
9.23584e-05
9.20878e-05
9.20851e-05
8.46862e-05
8.62469e-05
9.23726e-05
9.2086e-05
9.20973e-05
8.66415e-05
8.63998e-05
8.83483e-05
9.20402e-05
9.20262e-05
9.2117e-05
9.20969e-05
8.63758e-05
8.83394e-05
9.20476e-05
9.20236e-05
9.21224e-05
9.20943e-05
9.20553e-05
9.21263e-05
9.21257e-05
8.65325e-05
8.80872e-05
9.20665e-05
9.21265e-05
9.21366e-05
8.83879e-05
8.84228e-05
9.02097e-05
9.21963e-05
9.21796e-05
9.25942e-05
9.25749e-05
8.83466e-05
9.04671e-05
9.22007e-05
9.21767e-05
9.25981e-05
9.257e-05
9.22083e-05
9.26005e-05
9.26043e-05
8.85612e-05
9.00629e-05
9.22182e-05
9.26028e-05
9.26127e-05
9.02443e-05
9.07633e-05
9.24846e-05
9.27779e-05
9.27607e-05
9.34724e-05
9.34532e-05
9.05404e-05
9.27806e-05
9.27814e-05
9.27562e-05
9.34756e-05
9.3447e-05
9.27898e-05
9.34761e-05
9.34802e-05
9.08103e-05
9.23428e-05
9.27986e-05
9.34776e-05
9.34886e-05
9.25e-05
9.31561e-05
9.48968e-05
9.37504e-05
9.3734e-05
9.47131e-05
9.46964e-05
9.29881e-05
9.51928e-05
9.3753e-05
9.37279e-05
9.47159e-05
9.46895e-05
9.37617e-05
9.47164e-05
9.47219e-05
9.32104e-05
9.48578e-05
9.37694e-05
9.47166e-05
9.47288e-05
9.49079e-05
9.54418e-05
9.73115e-05
9.50748e-05
9.50622e-05
9.62806e-05
9.62667e-05
9.52892e-05
9.76023e-05
9.5078e-05
9.5056e-05
9.62826e-05
9.62583e-05
9.50878e-05
9.62847e-05
9.62906e-05
9.54465e-05
9.76494e-05
9.50951e-05
9.62863e-05
9.62978e-05
9.72447e-05
9.79512e-05
9.99688e-05
9.67192e-05
9.67089e-05
9.81406e-05
9.81269e-05
9.78521e-05
9.98521e-05
9.67216e-05
9.67018e-05
9.81457e-05
9.81186e-05
9.6733e-05
9.81452e-05
9.81515e-05
9.76809e-05
0.000100168
9.67403e-05
9.81448e-05
9.81578e-05
9.97974e-05
0.000100575
0.000102681
9.86449e-05
9.86359e-05
0.000100252
0.000100243
0.000100597
0.000102525
9.86517e-05
9.86288e-05
0.000100259
0.000100232
9.86593e-05
0.00010026
0.000100265
0.000100183
0.00010272
9.86649e-05
0.000100257
0.000100269
0.000102382
0.000103074
0.000105187
0.000100815
0.00010081
0.000102586
0.000102579
0.000103222
0.000105214
0.000100823
0.000100799
0.000102592
0.000102564
0.000100831
0.000102595
0.000102598
0.000102829
0.000105404
0.000100835
0.000102588
0.000102601
0.000104999
0.000105663
0.000107649
0.000103199
0.000103198
0.000105109
0.000105106
0.000105867
0.000107875
0.000103207
0.000103182
0.000105116
0.000105086
0.000103214
0.00010512
0.00010512
0.000105463
0.000108059
0.000103217
0.000105109
0.000105122
0.000107664
0.000108477
0.000110416
0.000105765
0.000105768
0.000107795
0.00010779
0.000108422
0.000110752
0.000105772
0.000105747
0.0001078
0.00010777
0.000105779
0.000107803
0.000107806
0.000108148
0.000110688
0.000105781
0.000107793
0.000107806
0.000110387
0.000111226
0.00011305
0.000108487
0.000108487
0.000110611
0.000110607
0.000110837
0.000113432
0.000108493
0.000108466
0.000110616
0.000110587
0.000108501
0.000110621
0.000110623
0.000110821
0.000113373
0.000108501
0.000110608
0.000110622
0.000113118
0.000113913
0.000115888
0.000111333
0.000111333
0.000113536
0.00011353
0.000113527
0.000116086
0.000111338
0.000111311
0.000113541
0.000113511
0.000111346
0.000113544
0.000113548
0.000113527
0.000116055
0.000111345
0.000113531
0.000113547
0.000115775
0.000116535
0.000118646
0.000114282
0.000114276
0.000116545
0.000116536
0.00011623
0.000118798
0.000114287
0.000114258
0.000116549
0.000116521
0.000114294
0.000116551
0.000116556
0.000116212
0.000118767
0.000114293
0.000116539
0.000116555
0.000118498
0.000119038
0.000121372
0.00011731
0.000117302
0.000119626
0.000119614
0.000118903
0.000121269
0.000117314
0.000117289
0.000119629
0.000119604
0.00011732
0.000119629
0.000119636
0.00011897
0.000121475
0.00011732
0.00011962
0.000119636
0.000121135
0.000121665
0.000124115
0.000120405
0.000120396
0.000122761
0.000122747
0.000121677
0.00012395
0.000120408
0.000120386
0.000122762
0.000122739
0.000120415
0.000122762
0.000122769
0.00012157
0.000124084
0.000120416
0.000122753
0.000122769
0.000123788
0.000124308
0.00012664
0.00012355
0.000123538
0.000125927
0.000125913
0.000124396
0.000126595
0.000123551
0.000123531
0.000125928
0.000125908
0.00012356
0.000125928
0.000125938
0.000124197
0.000126675
0.00012356
0.000125922
0.000125938
0.000126531
0.00012697
0.000129182
0.000126723
0.000126709
0.000129112
0.000129098
0.000126936
0.000129184
0.000126724
0.000126706
0.000129113
0.000129095
0.000126735
0.000129113
0.000129126
0.000126967
0.000129192
0.000126735
0.000129108
0.000129126
0.000129302
0.000129573
0.000131736
0.000129909
0.000129896
0.0001323
0.000132285
0.000129488
0.000131854
0.000129911
0.000129895
0.000132301
0.000132283
0.000129923
0.000132299
0.000132314
0.000129588
0.000131749
0.000129924
0.000132295
0.000132316
0.000131941
0.000132163
0.000134254
0.000133096
0.000133082
0.000135477
0.000135464
0.000131973
0.000134291
0.000133097
0.000133081
0.000135478
0.000135463
0.000133112
0.000135478
0.000135495
0.00013202
0.000134303
0.000133114
0.000135474
0.000135498
0.000134437
0.000134623
0.000136816
0.000136269
0.000136257
0.000138637
0.000138626
0.000134618
0.000136834
0.000136271
0.000136257
0.00013864
0.000138624
0.000136289
0.000138641
0.000138657
0.000134606
0.000136845
0.000136292
0.000138636
0.00013866
0.000136872
0.00023473
0.000234746
0.000234729
0.000234729
0.000235099
0.000234799
0.000234712
0.000234726
0.000235098
0.000234799
0.000234726
0.000234821
0.000234869
0.000233372
0.000233473
0.000104746
3.84967e-05
0.000128432
3.97745e-05
2.17372e-05
2.28345e-05
0.000104644
3.84826e-05
0.000128277
3.97849e-05
0.000233972
0.000233972
0.000233972
0.000232929
0.000232928
0.000232929
0.000232929
0.000205993
9.27276e-05
0.000233966
0.000231965
0.000222291
8.62707e-05
0.000233605
2.19463e-05
2.2846e-05
0.000206041
0.000233967
9.27695e-05
0.000231965
0.000222378
0.000233606
8.64116e-05
4.77171e-05
4.79494e-05
0.000231304
4.37998e-05
4.38344e-05
7.26408e-05
4.24138e-05
8.13827e-05
4.37556e-05
2.48012e-05
2.5476e-05
7.25961e-05
4.24067e-05
8.13204e-05
4.3755e-05
0.000232522
0.000232523
0.000232521
0.000231066
0.000231062
0.000231064
0.000231058
0.00016727
7.88036e-05
0.000232055
0.000225989
0.000179954
7.39491e-05
0.000231343
2.4793e-05
2.54743e-05
0.00016727
0.000232058
7.88562e-05
0.000225992
0.000179983
0.000231345
7.39203e-05
3.91827e-05
3.87588e-05
0.000219388
3.65968e-05
3.61606e-05
5.63456e-05
4.5542e-05
6.12357e-05
4.64192e-05
2.60181e-05
2.61188e-05
5.63601e-05
4.55396e-05
6.12174e-05
4.6416e-05
0.00023049
0.000230492
0.000230485
0.000228509
0.000228504
0.000228505
0.000228501
0.000138521
6.69714e-05
0.000228587
0.000218086
0.000147972
6.31608e-05
0.000227473
2.60143e-05
2.61176e-05
0.000138465
0.000228583
6.70158e-05
0.000218077
0.000147968
0.000227466
6.30841e-05
3.33233e-05
3.31518e-05
0.000204449
3.20854e-05
3.20422e-05
4.70514e-05
4.74988e-05
4.99685e-05
4.80112e-05
2.60409e-05
2.59392e-05
4.70191e-05
4.74957e-05
5.00055e-05
4.8009e-05
0.000227756
0.000227757
0.000227754
0.00022528
0.000225275
0.000225271
0.000225274
0.000117513
5.7904e-05
0.00022364
0.000209266
0.000124577
5.51552e-05
0.000222225
2.60491e-05
2.59374e-05
0.000117507
0.000223634
5.79082e-05
0.000209253
0.000124604
0.000222218
5.51495e-05
3.07292e-05
3.07248e-05
0.000189694
3.04121e-05
3.03981e-05
4.1447e-05
4.85804e-05
4.33214e-05
4.88429e-05
2.56722e-05
2.55205e-05
4.14826e-05
4.85769e-05
4.3293e-05
4.88399e-05
0.000224377
0.00022437
0.000224376
0.000221501
0.000221498
0.000221484
0.000221496
0.000102129
5.16517e-05
0.000217678
0.000200256
0.000107414
4.98225e-05
0.000216087
2.56699e-05
2.55189e-05
0.000102111
0.000217673
5.16482e-05
0.000200242
0.000107386
0.000216078
4.97607e-05
3.02949e-05
3.02419e-05
0.00017634
3.04839e-05
3.03587e-05
3.81906e-05
4.90892e-05
3.92709e-05
4.91965e-05
2.52353e-05
2.50953e-05
3.82055e-05
4.90858e-05
3.92593e-05
4.91925e-05
0.000220486
0.000220469
0.000220482
0.000217323
0.000217322
0.000217301
0.000217313
9.05271e-05
4.7547e-05
0.000211173
0.00019147
9.45437e-05
4.63775e-05
0.000209507
2.52333e-05
2.50941e-05
9.05002e-05
0.000211161
4.74906e-05
0.000191452
9.45143e-05
0.00020949
4.63236e-05
3.11217e-05
3.09681e-05
0.000164524
3.15772e-05
3.13898e-05
3.63866e-05
4.92656e-05
3.6975e-05
4.92931e-05
2.48471e-05
2.47345e-05
3.64074e-05
4.9262e-05
3.69519e-05
4.929e-05
0.000216232
0.000216211
0.00021622
0.000212883
0.000212883
0.00021286
0.000212865
8.16306e-05
4.5002e-05
0.000204484
0.000183098
8.47816e-05
4.43767e-05
0.000202813
2.48463e-05
2.47343e-05
8.16177e-05
0.000204464
4.49721e-05
0.000183076
8.4756e-05
0.00020279
4.43525e-05
3.26823e-05
3.26268e-05
0.000154275
3.33424e-05
3.32732e-05
3.57001e-05
4.92839e-05
3.58395e-05
4.92819e-05
2.45352e-05
2.44493e-05
3.57056e-05
4.92806e-05
3.58351e-05
4.92786e-05
0.000211746
0.000211723
0.000211726
0.000208292
0.000208293
0.000208268
0.000208271
7.46996e-05
4.36384e-05
0.000197847
0.000175194
7.72298e-05
4.33752e-05
0.000196214
2.45363e-05
2.44473e-05
7.46944e-05
0.000197825
4.36113e-05
0.00017517
7.72204e-05
0.00019619
4.33393e-05
3.47084e-05
3.47289e-05
0.000145244
3.54817e-05
3.54424e-05
3.58126e-05
4.92439e-05
3.56539e-05
4.92428e-05
2.42942e-05
2.4232e-05
3.58164e-05
4.92401e-05
3.5644e-05
4.92391e-05
0.000207133
0.000207108
0.000207111
0.000203637
0.000203638
0.000203613
0.000203619
6.92649e-05
4.31316e-05
0.000191398
0.000167783
7.12959e-05
4.31121e-05
0.000189819
2.42978e-05
2.423e-05
6.92549e-05
0.00019138
4.31551e-05
0.000167758
7.12874e-05
0.000189798
4.30621e-05
3.70361e-05
3.70421e-05
0.000137279
3.78263e-05
3.78074e-05
3.65962e-05
4.92189e-05
3.62126e-05
4.92171e-05
2.41149e-05
2.40715e-05
3.66015e-05
4.92151e-05
3.62084e-05
4.92134e-05
0.000202473
0.000202448
0.000202455
0.000198979
0.000198979
0.000198956
0.000198964
6.49287e-05
4.32682e-05
0.000185164
0.000160824
6.65671e-05
4.3508e-05
0.000183643
2.41169e-05
2.40655e-05
6.49091e-05
0.00018515
4.33202e-05
0.000160801
6.65648e-05
0.000183627
4.34026e-05
3.94815e-05
3.9504e-05
0.000130072
4.03573e-05
4.0319e-05
3.80219e-05
4.92171e-05
3.74293e-05
4.92245e-05
2.399e-05
2.3951e-05
3.80064e-05
4.92132e-05
3.74224e-05
4.92209e-05
0.00019782
0.000197797
0.000197806
0.000194354
0.000194354
0.000194334
0.000194342
6.15194e-05
4.39396e-05
0.000179186
0.000154263
6.27944e-05
4.4384e-05
0.000177736
2.3982e-05
2.39546e-05
6.15233e-05
0.000179178
4.40222e-05
0.000154244
6.27688e-05
0.000177725
4.42705e-05
4.2003e-05
4.20268e-05
0.000123489
4.28707e-05
4.2835e-05
3.99938e-05
4.9231e-05
3.92184e-05
4.92549e-05
2.38992e-05
2.38692e-05
3.99961e-05
4.92275e-05
3.92223e-05
4.92516e-05
0.000193208
0.000193188
0.000193196
0.000189766
0.000189766
0.000189749
0.000189756
5.9002e-05
4.50734e-05
0.000173488
0.000148044
5.98178e-05
4.56502e-05
0.000172102
2.38897e-05
2.3874e-05
5.90069e-05
0.000173482
4.51568e-05
0.000148028
5.98268e-05
0.000172093
4.55273e-05
4.4495e-05
4.45106e-05
0.000117397
4.5326e-05
4.52958e-05
4.24997e-05
4.9267e-05
4.15493e-05
4.92933e-05
2.38355e-05
2.3812e-05
4.24772e-05
4.92635e-05
4.15575e-05
4.92901e-05
0.000188619
0.000188601
0.000188609
0.000185211
0.000185212
0.000185195
0.000185202
5.71747e-05
4.65858e-05
0.000168036
0.000142131
5.76701e-05
4.72487e-05
0.00016671
2.38255e-05
2.38178e-05
5.71466e-05
0.000168032
4.66516e-05
0.000142116
5.7672e-05
0.000166701
4.7164e-05
4.68874e-05
4.68916e-05
0.000111534
4.76622e-05
4.76416e-05
4.53992e-05
4.93082e-05
4.43333e-05
4.93332e-05
2.37904e-05
2.37715e-05
4.53614e-05
4.93047e-05
4.43721e-05
4.93305e-05
0.000184087
0.00018407
0.000184078
0.000180745
0.000180746
0.00018073
0.000180737
5.59881e-05
4.84261e-05
0.000162799
0.000136467
5.62544e-05
4.90706e-05
0.000161521
2.37804e-05
2.37779e-05
5.59016e-05
0.000162796
4.84616e-05
0.000136454
5.63089e-05
0.000161513
4.903e-05
4.91237e-05
4.912e-05
0.000106136
4.98455e-05
4.98425e-05
4.86421e-05
4.93482e-05
4.74814e-05
4.93713e-05
2.37573e-05
2.37442e-05
4.85818e-05
4.93451e-05
4.75174e-05
4.93681e-05
0.000179642
0.000179626
0.000179634
0.000176357
0.000176359
0.000176343
0.000176351
5.54935e-05
5.04672e-05
0.000157743
0.000131017
5.55129e-05
5.11443e-05
0.000156507
2.37476e-05
2.3747e-05
5.53907e-05
0.000157739
5.04386e-05
0.000131005
5.55833e-05
0.000156498
5.11615e-05
5.11938e-05
5.11834e-05
0.000101259
5.18323e-05
5.1848e-05
5.20565e-05
4.93847e-05
5.08618e-05
4.94058e-05
2.37274e-05
2.37227e-05
5.20454e-05
4.93819e-05
5.08879e-05
4.94031e-05
0.000175273
0.000175257
0.000175266
0.000172037
0.000172038
0.000172023
0.000172032
5.56034e-05
5.26302e-05
0.000152838
0.000125784
5.54148e-05
5.33551e-05
0.000151637
2.37244e-05
2.37211e-05
5.54967e-05
0.000152836
5.26404e-05
0.000125773
5.54774e-05
0.00015163
5.33357e-05
5.30767e-05
5.30754e-05
9.68659e-05
5.36506e-05
5.36512e-05
5.55471e-05
4.94178e-05
5.43386e-05
4.94372e-05
2.3707e-05
2.37022e-05
5.55815e-05
4.9415e-05
5.43054e-05
4.94348e-05
0.000170968
0.000170954
0.000170963
0.000167769
0.00016777
0.000167757
0.000167765
5.63476e-05
5.48815e-05
0.000148082
0.000120786
5.59178e-05
5.56213e-05
0.000146914
2.37051e-05
2.37004e-05
5.62405e-05
0.000148082
5.49015e-05
0.000120777
5.59951e-05
0.00014691
5.56163e-05
5.4778e-05
5.47663e-05
9.29904e-05
5.52907e-05
5.53131e-05
5.89728e-05
4.94482e-05
5.7719e-05
4.94666e-05
2.36892e-05
2.36847e-05
5.90116e-05
4.94458e-05
5.76933e-05
4.9464e-05
0.000166713
0.000166702
0.00016671
0.000163553
0.000163552
0.000163542
0.000163549
5.76288e-05
5.71316e-05
0.00014344
0.000116044
5.70395e-05
5.7932e-05
0.000142298
2.36873e-05
2.36826e-05
5.75444e-05
0.000143442
5.7186e-05
0.000116034
5.71183e-05
0.000142297
5.78758e-05
5.63129e-05
5.63101e-05
8.97428e-05
5.67739e-05
5.67772e-05
6.21774e-05
4.94769e-05
6.09654e-05
4.94946e-05
2.36729e-05
2.36682e-05
6.21994e-05
4.94746e-05
6.09598e-05
4.94915e-05
0.00016251
0.0001625
0.000162507
0.000159371
0.000159371
0.000159361
0.000159367
5.94103e-05
5.94115e-05
0.000138897
0.000111614
5.87047e-05
6.01385e-05
0.000137783
2.36709e-05
2.36664e-05
5.93501e-05
0.0001389
5.94394e-05
0.000111603
5.8752e-05
0.000137782
6.01203e-05
5.76959e-05
5.76808e-05
8.698e-05
5.81139e-05
5.81323e-05
6.51015e-05
4.95034e-05
6.39751e-05
4.95198e-05
2.36573e-05
2.36534e-05
6.51125e-05
4.95016e-05
6.39756e-05
4.95177e-05
0.000158333
0.000158324
0.00015833
0.000155208
0.000155208
0.000155199
0.000155205
6.1643e-05
6.16132e-05
0.000134457
0.000107547
6.08082e-05
6.23101e-05
0.000133378
2.36555e-05
2.36515e-05
6.15873e-05
0.00013446
6.16304e-05
0.000107535
6.08573e-05
0.000133378
6.22972e-05
5.89477e-05
5.89307e-05
8.48222e-05
5.93274e-05
5.9346e-05
6.7696e-05
4.95286e-05
6.67036e-05
4.95435e-05
2.36433e-05
2.36397e-05
6.77219e-05
4.95267e-05
6.66938e-05
4.95405e-05
0.000154175
0.000154166
0.000154172
0.00015107
0.00015107
0.00015106
0.000151067
6.41908e-05
6.37266e-05
0.000130136
0.000103918
6.32935e-05
6.44016e-05
0.000129098
2.36411e-05
2.36374e-05
6.41505e-05
0.000130138
6.37356e-05
0.000103906
6.33277e-05
0.000129096
6.43683e-05
6.00839e-05
6.00666e-05
8.33362e-05
6.04313e-05
6.04474e-05
7.00031e-05
4.95514e-05
6.91001e-05
4.95652e-05
2.363e-05
2.36266e-05
7.00291e-05
4.95548e-05
6.90929e-05
4.95593e-05
0.000150046
0.000150037
0.000150044
0.000146966
0.000146966
0.000146956
0.000146963
6.69956e-05
6.57284e-05
0.000125981
0.000100692
6.60023e-05
6.63653e-05
0.000124957
2.36277e-05
2.36244e-05
6.69492e-05
0.000125981
6.5745e-05
0.000100681
6.60376e-05
0.000124949
6.63529e-05
6.1118e-05
6.11021e-05
8.24756e-05
6.14352e-05
6.14532e-05
7.20097e-05
4.95774e-05
7.12074e-05
4.95806e-05
2.36176e-05
2.36146e-05
7.20271e-05
4.95756e-05
7.12028e-05
4.95793e-05
0.000145956
0.000145946
0.000145954
0.000142915
0.000142916
0.000142906
0.000142914
6.99235e-05
6.76335e-05
0.000122006
9.79746e-05
6.89155e-05
6.82365e-05
0.000121032
2.36153e-05
2.36123e-05
6.99225e-05
0.000122009
6.76466e-05
9.79633e-05
6.8934e-05
0.000121025
6.8219e-05
6.20634e-05
6.20477e-05
8.21743e-05
6.23608e-05
6.23632e-05
7.37423e-05
4.95955e-05
7.30486e-05
4.95982e-05
2.36062e-05
2.36034e-05
7.37627e-05
4.9594e-05
7.30564e-05
4.95966e-05
0.000141926
0.000141916
0.000141925
0.000138943
0.000138944
0.000138934
0.000138943
7.28858e-05
6.94342e-05
0.000118274
9.57696e-05
7.18999e-05
6.99859e-05
0.000117365
2.36039e-05
2.36012e-05
7.29105e-05
0.000118278
6.94448e-05
9.57581e-05
7.18873e-05
0.000117358
6.99922e-05
6.2929e-05
6.29215e-05
8.24021e-05
6.32114e-05
6.32114e-05
7.5291e-05
4.96105e-05
7.4658e-05
4.96135e-05
2.35958e-05
2.35933e-05
7.53101e-05
4.96098e-05
7.46595e-05
4.96125e-05
0.000137983
0.000137973
0.000137983
0.00013509
0.00013509
0.000135081
0.000135089
7.58735e-05
7.114e-05
0.000114837
9.4082e-05
7.48859e-05
7.16554e-05
0.000114031
2.35935e-05
2.3591e-05
7.58736e-05
0.000114844
7.1128e-05
9.40718e-05
7.48838e-05
0.000114027
7.16617e-05
6.37324e-05
6.37258e-05
8.29283e-05
6.39922e-05
6.39976e-05
7.66391e-05
4.96246e-05
7.60888e-05
4.9627e-05
2.35863e-05
2.35842e-05
7.66584e-05
4.96233e-05
7.60922e-05
4.96262e-05
0.000134145
0.000134134
0.000134146
0.000131371
0.000131371
0.000131361
0.000131373
7.87936e-05
7.27363e-05
0.000111719
9.29113e-05
7.78191e-05
7.32209e-05
0.000110996
2.35839e-05
2.35818e-05
7.87861e-05
0.000111726
7.27307e-05
9.29014e-05
7.78324e-05
0.000110996
7.32264e-05
6.44722e-05
6.44698e-05
8.41799e-05
6.4712e-05
6.47215e-05
7.78614e-05
4.96361e-05
7.73599e-05
4.96389e-05
2.35778e-05
2.3576e-05
7.78787e-05
4.96346e-05
7.73642e-05
4.96382e-05
0.000130464
0.000130454
0.000130466
0.000127827
0.000127827
0.000127818
0.00012783
8.16166e-05
7.42395e-05
0.000108982
9.22412e-05
8.06777e-05
7.46998e-05
0.000108358
2.35754e-05
2.35736e-05
8.16377e-05
0.000108992
7.42353e-05
9.22358e-05
8.06811e-05
0.000108359
7.47096e-05
6.51587e-05
6.51538e-05
8.56976e-05
6.53818e-05
6.53844e-05
7.89699e-05
4.96468e-05
7.85054e-05
4.96498e-05
2.35702e-05
2.35688e-05
7.89831e-05
4.96432e-05
7.85117e-05
4.96501e-05
0.000126968
0.000126959
0.000126971
0.000124495
0.000124495
0.000124486
0.000124499
8.43038e-05
7.56557e-05
0.000106649
9.20498e-05
8.34449e-05
7.60913e-05
0.000106127
2.35678e-05
2.35663e-05
8.43393e-05
0.00010666
7.5658e-05
9.2049e-05
8.3428e-05
0.000106132
7.60982e-05
6.57936e-05
6.5792e-05
8.73953e-05
6.60054e-05
6.60054e-05
7.99837e-05
4.96554e-05
7.95511e-05
4.9661e-05
2.35636e-05
2.35624e-05
7.99938e-05
4.96542e-05
7.95616e-05
4.96589e-05
0.000123693
0.000123684
0.000123697
0.00012142
0.00012142
0.000121412
0.000121426
8.69161e-05
7.69937e-05
0.000104743
9.23099e-05
8.60851e-05
7.74096e-05
0.000104332
2.3561e-05
2.35599e-05
8.69522e-05
0.000104753
7.69977e-05
9.23121e-05
8.60687e-05
0.000104336
7.74137e-05
6.63878e-05
6.63884e-05
8.94735e-05
6.65876e-05
6.6589e-05
8.09279e-05
4.96645e-05
8.05169e-05
4.96713e-05
2.35579e-05
2.35571e-05
8.09339e-05
4.96626e-05
8.05287e-05
4.967e-05
0.000120685
0.000120676
0.00012069
0.000118603
0.000118601
0.000118593
0.000118607
8.94114e-05
7.8259e-05
0.000103285
9.29893e-05
8.8605e-05
7.86547e-05
0.000102984
2.35553e-05
2.35545e-05
8.94311e-05
0.000103292
7.82669e-05
9.29921e-05
8.85943e-05
0.000102987
7.86617e-05
6.69472e-05
6.69477e-05
9.13762e-05
6.71357e-05
6.71367e-05
8.1802e-05
4.96744e-05
8.14191e-05
4.96814e-05
2.35532e-05
2.35527e-05
8.18073e-05
4.9673e-05
8.14278e-05
4.96802e-05
0.000117946
0.000117938
0.000117953
0.000116105
0.000116104
0.000116096
0.00011611
9.1828e-05
7.9461e-05
0.000102272
9.40525e-05
9.09866e-05
7.98404e-05
0.000102081
2.35505e-05
2.35501e-05
9.18413e-05
0.000102283
7.9467e-05
9.40526e-05
9.09907e-05
0.000102086
7.98471e-05
6.74764e-05
6.74761e-05
9.37095e-05
6.76531e-05
6.76552e-05
8.26205e-05
4.96849e-05
8.22633e-05
4.96918e-05
2.35494e-05
2.35494e-05
8.2628e-05
4.96834e-05
8.22715e-05
4.96913e-05
0.000115529
0.000115521
0.000115537
0.000113938
0.000113936
0.000113929
0.000113944
9.4127e-05
8.06043e-05
0.000101702
9.54614e-05
9.32822e-05
8.09652e-05
0.00010162
2.35468e-05
2.35468e-05
9.41335e-05
0.000101712
8.06107e-05
9.54636e-05
9.32875e-05
0.000101627
8.09748e-05
6.79769e-05
6.79766e-05
9.59831e-05
6.8145e-05
6.81471e-05
8.33923e-05
4.96993e-05
8.30555e-05
4.97012e-05
2.35467e-05
2.3547e-05
8.34016e-05
4.96944e-05
8.30623e-05
4.97034e-05
0.000113448
0.00011344
0.000113456
0.000112119
0.000112117
0.00011211
0.000112126
9.63245e-05
8.16892e-05
0.000101563
9.71801e-05
9.54874e-05
8.20523e-05
0.000101589
2.35441e-05
2.35444e-05
9.63296e-05
0.000101577
8.17014e-05
9.71821e-05