/*--------------------------------*- C++ -*----------------------------------*\
| =========                 |                                                 |
| \\      /  F ield         | OpenFOAM: The Open Source CFD Toolbox           |
|  \\    /   O peration     | Version:  v2012                                 |
|   \\  /    A nd           | Website:  www.openfoam.com                      |
|    \\/     M anipulation  |                                                 |
\*---------------------------------------------------------------------------*/
FoamFile
{
    version     2.0;
    format      ascii;
    class       surfaceScalarField;
    location    "400";
    object      phi;
}
// * * * * * * * * * * * * * * * * * * * * * * * * * * * * * * * * * * * * * //

dimensions      [0 3 -1 0 0 0 0];
oriented        oriented;


internalField   nonuniform List<scalar> 
248808
(
-0.00104218
-1.46314e-05
-1.45279e-05
9.38384e-06
9.2144e-06
0.00105274
-0.00026149
-5.68389e-06
1.45084e-05
6.88892e-06
0.00105925
-4.59316e-06
-1.59767e-06
-2.12126e-06
-2.49011e-06
-6.62373e-06
-7.11431e-06
-2.98542e-06
-0.000263332
-0.000259761
-0.000262856
-0.000261467
-5.68911e-06
1.45368e-05
6.97916e-06
0.00105904
-4.59859e-06
-1.60806e-06
-2.12898e-06
-2.49435e-06
-6.61768e-06
-7.1104e-06
-2.98727e-06
-0.000259733
-0.000263304
-0.00026282
-0.000260564
5.65938e-06
5.69983e-06
-4.95391e-06
-4.9472e-06
0.000259106
-1.65254e-06
-1.65476e-06
-0.0010608
9.34132e-07
9.35126e-07
0.00106223
-0.00106274
-1.61822e-06
1.64793e-06
8.30399e-07
0.00106394
-6.79685e-07
8.35268e-07
-9.88873e-08
4.23288e-07
-8.50232e-07
-1.43161e-06
-2.54746e-07
-0.00106242
-1.6132e-06
1.65895e-06
8.25425e-07
0.00106362
-6.79579e-07
8.29707e-07
-9.89584e-08
4.20707e-07
-8.52826e-07
-1.43135e-06
-2.52304e-07
-0.000261566
1.65054e-06
1.61327e-06
-6.98108e-07
-7.00586e-07
0.000259701
-1.37498e-06
-1.3761e-06
-0.00106636
6.96116e-07
6.97064e-07
0.00106772
-0.00106788
-1.57227e-06
1.38128e-06
6.90491e-07
0.00106923
-6.56956e-07
8.78696e-07
-7.3069e-08
4.6145e-07
-8.37605e-07
-1.39925e-06
-2.21706e-07
-0.00106756
-1.56743e-06
1.37541e-06
6.95498e-07
0.0010689
-6.57259e-07
8.72967e-07
-7.33045e-08
4.62275e-07
-8.36843e-07
-1.39299e-06
-2.18509e-07
-0.000262802
1.60232e-06
1.56726e-06
-6.63145e-07
-6.71726e-07
0.000260967
-1.34943e-06
-1.35101e-06
-0.00107181
6.75529e-07
6.76221e-07
0.00107316
-0.00107323
-1.57216e-06
1.35128e-06
6.66369e-07
0.00107454
-6.53317e-07
9.00938e-07
-5.2997e-08
4.75523e-07
-8.28476e-07
-1.4047e-06
-1.94962e-07
-0.00107289
-1.56699e-06
1.35043e-06
6.66058e-07
0.0010742
-6.50732e-07
8.95462e-07
-5.51136e-08
4.75705e-07
-8.30611e-07
-1.4042e-06
-1.92243e-07
-0.000264079
1.60001e-06
1.5674e-06
-6.55673e-07
-6.61824e-07
0.00026223
-1.30344e-06
-1.30431e-06
-0.00107714
6.51165e-07
6.52317e-07
0.00107845
-0.0010784
-1.56387e-06
1.30446e-06
6.35459e-07
0.00107965
-6.38434e-07
9.25153e-07
-3.46808e-08
4.94862e-07
-8.09821e-07
-1.40339e-06
-1.64927e-07
-0.00107806
-1.55832e-06
1.3045e-06
6.35233e-07
0.00107931
-6.35514e-07
9.20021e-07
-3.64531e-08
4.94524e-07
-8.12704e-07
-1.40355e-06
-1.62774e-07
-0.000265298
1.59164e-06
1.55896e-06
-6.40093e-07
-6.4587e-07
0.000263434
-1.25381e-06
-1.25368e-06
-0.00108228
6.2629e-07
6.2823e-07
0.00108354
-0.00108332
-1.55504e-06
1.25373e-06
6.06848e-07
0.00108452
-6.24205e-07
9.46956e-07
-1.39588e-08
5.16124e-07
-7.89069e-07
-1.39696e-06
-1.36898e-07
-0.00108298
-1.54921e-06
1.25315e-06
6.06114e-07
0.00108417
-6.21091e-07
9.42012e-07
-1.62821e-08
5.16169e-07
-7.9157e-07
-1.39676e-06
-1.34411e-07
-0.000266443
1.58211e-06
1.54953e-06
-6.23966e-07
-6.29019e-07
0.000264564
-1.20715e-06
-1.20762e-06
-0.00108722
6.04749e-07
6.06104e-07
0.00108842
-0.001088
-1.54746e-06
1.20697e-06
5.83268e-07
0.00108913
-6.12096e-07
9.66444e-07
3.49997e-09
5.37594e-07
-7.69641e-07
-1.38884e-06
-1.12212e-07
-0.00108766
-1.54173e-06
1.20594e-06
5.82737e-07
0.00108879
-6.09089e-07
9.61371e-07
1.06815e-09
5.37796e-07
-7.7186e-07
-1.38841e-06
-1.0957e-07
-0.000267513
1.57447e-06
1.54187e-06
-6.09706e-07
-6.14731e-07
0.000265621
-1.16642e-06
-1.16712e-06
-0.00109197
5.86386e-07
5.87207e-07
0.00109313
-0.00109245
-1.54167e-06
1.16655e-06
5.63773e-07
0.00109353
-6.02587e-07
9.83775e-07
1.80748e-08
5.58439e-07
-7.52695e-07
-1.38083e-06
-9.09885e-08
-0.0010921
-1.53592e-06
1.16675e-06
5.63737e-07
0.00109318
-5.99661e-07
9.78684e-07
1.55437e-08
5.58224e-07
-7.55375e-07
-1.3808e-06
-8.87915e-08
-0.000268515
1.56975e-06
1.53652e-06
-5.98038e-07
-6.03963e-07
0.000266611
-1.13104e-06
-1.13278e-06
-0.00109655
5.70915e-07
5.7136e-07
0.00109767
-0.00109669
-1.53781e-06
1.13241e-06
5.48772e-07
0.00109772
-5.958e-07
9.98849e-07
2.99475e-08
5.78452e-07
-7.38172e-07
-1.37349e-06
-7.28646e-08
-0.00109634
-1.53237e-06
1.13339e-06
5.49621e-07
0.00109737
-5.93194e-07
9.93365e-07
2.70364e-08
5.78151e-07
-7.41067e-07
-1.3736e-06
-7.08601e-08
-0.000269455
1.56664e-06
1.53293e-06
-5.88546e-07
-5.9504e-07
0.000267539
-1.10048e-06
-1.1027e-06
-0.00110098
5.5764e-07
5.57844e-07
0.00110207
-0.00110074
-1.53619e-06
1.10214e-06
5.36851e-07
0.00110172
-5.91773e-07
1.01178e-06
4.38219e-08
5.97495e-07
-7.25561e-07
-1.36683e-06
-5.75612e-08
-0.00110039
-1.531e-06
1.10319e-06
5.3845e-07
0.00110138
-5.89302e-07
1.00607e-06
3.93565e-08
5.97468e-07
-7.28153e-07
-1.36668e-06
-5.53915e-08
-0.000270336
1.56465e-06
1.53093e-06
-5.81021e-07
-5.87194e-07
0.000268409
-1.07422e-06
-1.07593e-06
-0.00110529
5.46029e-07
5.46473e-07
0.00110634
-0.00110462
-1.53547e-06
1.0757e-06
5.2804e-07
0.00110557
-5.86074e-07
1.02398e-06
5.17682e-08
6.15494e-07
-7.13837e-07
-1.36051e-06
-4.45849e-08
-0.00110427
-1.53025e-06
1.07586e-06
5.28785e-07
0.00110522
-5.86297e-07
1.01829e-06
5.14279e-08
6.15563e-07
-7.16321e-07
-1.36024e-06
-4.23799e-08
-0.000271164
1.56382e-06
1.53018e-06
-5.74861e-07
-5.80731e-07
0.000269225
-1.05029e-06
-1.05133e-06
-0.00110948
5.35122e-07
5.36049e-07
0.00111051
-0.00110835
-1.53508e-06
1.05155e-06
5.19449e-07
0.00110925
-5.83573e-07
1.03573e-06
6.16343e-08
6.32394e-07
-7.02214e-07
-1.35395e-06
-3.34589e-08
-0.001108
-1.52957e-06
1.0513e-06
5.19417e-07
0.0011089
-5.83494e-07
1.0303e-06
6.16857e-08
6.32515e-07
-7.04647e-07
-1.35363e-06
-3.12592e-08
-0.000271939
1.56342e-06
1.52976e-06
-5.69215e-07
-5.75004e-07
0.00026999
-1.02691e-06
-1.02743e-06
-0.00111356
5.24311e-07
5.25414e-07
0.00111456
-0.00111192
-1.53478e-06
1.02786e-06
5.10093e-07
0.00111279
-5.80765e-07
1.04731e-06
7.04541e-08
6.47873e-07
-6.90348e-07
-1.34701e-06
-2.10206e-08
-0.00111157
-1.52911e-06
1.0275e-06
5.09604e-07
0.00111244
-5.80536e-07
1.04187e-06
7.06274e-08
6.47887e-07
-6.92956e-07
-1.34679e-06
-1.8172e-08
-0.000272662
1.56329e-06
1.52943e-06
-5.64025e-07
-5.6989e-07
0.000270703
-1.00423e-06
-1.00516e-06
-0.00111754
5.14308e-07
5.15078e-07
0.00111852
-0.00111535
-1.53473e-06
1.00511e-06
4.99794e-07
0.00111618
-5.76872e-07
1.05796e-06
7.90128e-08
6.62163e-07
-6.77545e-07
-1.33916e-06
-8.84527e-09
-0.001115
-1.52907e-06
1.00494e-06
4.99767e-07
0.00111583
-5.76717e-07
1.0525e-06
7.90493e-08
6.62085e-07
-6.80259e-07
-1.33904e-06
-6.10106e-09
-0.000273332
1.56331e-06
1.52935e-06
-5.58586e-07
-5.64434e-07
0.000271363
-9.81934e-07
-9.83426e-07
-0.00112142
5.04502e-07
5.04781e-07
0.00112238
-0.00111862
-1.53428e-06
9.82888e-07
4.89058e-07
0.00111942
-5.7175e-07
1.06787e-06
8.74712e-08
6.75173e-07
-6.63768e-07
-1.33027e-06
2.38555e-09
-0.00111827
-1.52878e-06
9.82807e-07
4.89472e-07
0.00111906
-5.71731e-07
1.0623e-06
8.73808e-08
6.751e-07
-6.66474e-07
-1.33021e-06
5.14e-09
-0.000273948
1.56289e-06
1.52884e-06
-5.52045e-07
-5.57876e-07
0.000271966
-9.59901e-07
-9.61699e-07
-0.00112521
4.94558e-07
4.94578e-07
0.00112614
-0.00112174
-1.53305e-06
9.60919e-07
4.78308e-07
0.0011225
-5.65556e-07
1.07764e-06
9.54934e-08
6.87008e-07
-6.49171e-07
-1.32045e-06
1.27111e-08
-0.00112139
-1.52759e-06
9.60789e-07
4.78679e-07
0.00112215
-5.65511e-07
1.07197e-06
9.53939e-08
6.86962e-07
-6.5183e-07
-1.32033e-06
1.55101e-08
-0.000274505
1.56168e-06
1.52753e-06
-5.44721e-07
-5.50562e-07
0.000272511
-9.38527e-07
-9.40131e-07
-0.00112891
4.84653e-07
4.84829e-07
0.00112982
-0.00112471
-1.53122e-06
9.39498e-07
4.67359e-07
0.00112543
-5.58059e-07
1.08689e-06
1.03183e-07
6.97772e-07
-6.33989e-07
-1.30965e-06
2.22637e-08
-0.00112436
-1.52572e-06
9.39191e-07
4.67661e-07
0.00112507
-5.58001e-07
1.08127e-06
1.03216e-07
6.97806e-07
-6.36705e-07
-1.30949e-06
2.51044e-08
-0.000275
1.55986e-06
1.52573e-06
-5.37015e-07
-5.42775e-07
0.000272994
-9.17519e-07
-9.18445e-07
-0.00113251
4.74549e-07
4.75186e-07
0.0011334
-0.00112751
-1.52878e-06
9.18405e-07
4.56302e-07
0.00112819
-5.49472e-07
1.09543e-06
1.10634e-07
7.07752e-07
-6.1861e-07
-1.29798e-06
3.2235e-08
-0.00112716
-1.52328e-06
9.17637e-07
4.55971e-07
0.00112783
-5.49474e-07
1.08976e-06
1.10663e-07
7.07579e-07
-6.21428e-07
-1.29788e-06
3.65212e-08
-0.00027543
1.55746e-06
1.52333e-06
-5.28729e-07
-5.34448e-07
0.000273412
-8.9693e-07
-8.97532e-07
-0.00113602
4.6515e-07
4.66047e-07
0.00113688
-0.00113014
-1.52571e-06
8.97402e-07
4.45043e-07
0.00113077
-5.40061e-07
1.10323e-06
1.17735e-07
7.16457e-07
-6.03311e-07
-1.28605e-06
4.43506e-08
-0.00112979
-1.52015e-06
8.96901e-07
4.44599e-07
0.00113042
-5.39984e-07
1.09762e-06
1.17846e-07
7.16314e-07
-6.06089e-07
-1.28596e-06
4.81855e-08
-0.000275792
1.55442e-06
1.52023e-06
-5.19849e-07
-5.25538e-07
0.000273763
-8.76952e-07
-8.77142e-07
-0.00113944
4.56448e-07
4.57293e-07
0.00114028
-0.0011326
-1.52163e-06
8.77244e-07
4.34581e-07
0.00113319
-5.29612e-07
1.11055e-06
1.24764e-07
7.24526e-07
-5.8787e-07
-1.2732e-06
5.48006e-08
-0.00113224
-1.51606e-06
8.76878e-07
4.34248e-07
0.00113283
-5.29587e-07
1.10492e-06
1.24848e-07
7.24366e-07
-5.90692e-07
-1.27317e-06
5.84082e-08
-0.000276084
1.55049e-06
1.5162e-06
-5.10153e-07
-5.15881e-07
0.000274043
-8.57344e-07
-8.57592e-07
-0.00114275
4.48316e-07
4.49229e-07
0.00114357
-0.00113488
-1.51658e-06
8.57675e-07
4.24131e-07
0.00113542
-5.21467e-07
1.1173e-06
1.34378e-07
7.32252e-07
-5.72523e-07
-1.25931e-06
6.42803e-08
-0.00113452
-1.51098e-06
8.57651e-07
4.24097e-07
0.00113506
-5.1858e-07
1.11166e-06
1.31516e-07
7.32018e-07
-5.75307e-07
-1.25933e-06
6.77055e-08
-0.000276305
1.5455e-06
1.51111e-06
-4.99631e-07
-5.05429e-07
0.000274253
-8.37849e-07
-8.38507e-07
-0.00114599
4.40728e-07
4.41462e-07
0.00114679
-0.00113697
-1.51034e-06
8.38425e-07
4.14396e-07
0.00113746
-5.1009e-07
1.12361e-06
1.40886e-07
7.3969e-07
-5.57204e-07
-1.24465e-06
7.30331e-08
-0.00113661
-1.50473e-06
8.38563e-07
4.14173e-07
0.0011371
-5.07182e-07
1.118e-06
1.37943e-07
7.39499e-07
-5.60068e-07
-1.24469e-06
7.63509e-08
-0.000276455
1.53929e-06
1.50482e-06
-4.88297e-07
-4.94087e-07
0.000274393
-8.1858e-07
-8.19389e-07
-0.00114914
4.33409e-07
4.33989e-07
0.00114991
-0.00113886
-1.50277e-06
8.19354e-07
4.04744e-07
0.00113931
-4.98822e-07
1.12966e-06
1.47287e-07
7.47147e-07
-5.42136e-07
-1.22936e-06
8.138e-08
-0.0011385
-1.49723e-06
8.19401e-07
4.04679e-07
0.00113895
-4.9593e-07
1.12396e-06
1.44326e-07
7.46907e-07
-5.44876e-07
-1.22938e-06
8.46663e-08
-0.000276535
1.53174e-06
1.49728e-06
-4.76124e-07
-4.8184e-07
0.000274464
-7.9882e-07
-7.99795e-07
-0.00115218
4.25836e-07
4.26214e-07
0.00115293
-0.00114056
-1.49426e-06
7.9946e-07
3.95483e-07
0.00114096
-4.87268e-07
1.13526e-06
1.53731e-07
7.5447e-07
-5.27373e-07
-1.2136e-06
8.96869e-08
-0.0011402
-1.48872e-06
7.99602e-07
3.95276e-07
0.0011406
-4.84379e-07
1.12966e-06
1.50718e-07
7.54291e-07
-5.30051e-07
-1.21357e-06
9.2874e-08
-0.00027655
1.52319e-06
1.48871e-06
-4.6342e-07
-4.69113e-07
0.000274471
-7.78746e-07
-7.79945e-07
-0.00115513
4.18274e-07
4.18597e-07
0.00115585
-0.00114207
-1.48483e-06
7.79639e-07
3.85741e-07
0.00114241
-4.75764e-07
1.14065e-06
1.60095e-07
7.61743e-07
-5.12723e-07
-1.19756e-06
9.7875e-08
-0.00114171
-1.47921e-06
7.79524e-07
3.85655e-07
0.00114205
-4.72957e-07
1.13513e-06
1.57056e-07
7.61587e-07
-5.15365e-07
-1.19748e-06
1.01044e-07
-0.000276505
1.51377e-06
1.47929e-06
-4.50421e-07
-4.5606e-07
0.000274418
-7.57896e-07
-7.59193e-07
-0.00115798
4.10172e-07
4.10401e-07
0.00115868
-0.00114337
-1.47462e-06
7.58578e-07
3.76599e-07
0.00114367
-4.64176e-07
1.14588e-06
1.66287e-07
7.69064e-07
-4.98387e-07
-1.18131e-06
1.06081e-07
-0.00114301
-1.46902e-06
7.5861e-07
3.76517e-07
0.00114331
-4.6133e-07
1.14025e-06
1.63297e-07
7.68917e-07
-5.01017e-07
-1.18118e-06
1.09161e-07
-0.000276405
1.5035e-06
1.46905e-06
-4.37253e-07
-4.4291e-07
0.000274313
-7.36432e-07
-7.3792e-07
-0.00116073
4.01883e-07
4.02078e-07
0.0011614
-0.00114449
-1.4637e-06
7.3726e-07
3.6715e-07
0.00114473
-4.52808e-07
1.15099e-06
1.72185e-07
7.76299e-07
-4.84171e-07
-1.16505e-06
1.14149e-07
-0.00114412
-1.45808e-06
7.37243e-07
3.67147e-07
0.00114437
-4.4992e-07
1.14545e-06
1.69274e-07
7.76145e-07
-4.86811e-07
-1.16495e-06
1.1715e-07
-0.000276259
1.49261e-06
1.45812e-06
-4.24136e-07
-4.29803e-07
0.000274162
-7.14353e-07
-7.15767e-07
-0.00116337
3.93224e-07
3.93324e-07
0.00116401
-0.00114541
-1.45222e-06
7.14975e-07
3.57625e-07
0.00114561
-4.416e-07
1.15627e-06
1.7809e-07
7.83395e-07
-4.70286e-07
-1.14894e-06
1.2199e-07
-0.00114504
-1.44657e-06
7.15113e-07
3.57421e-07
0.00114524
-4.38809e-07
1.15077e-06
1.75107e-07
7.832e-07
-4.72912e-07
-1.14885e-06
1.25035e-07
-0.000276074
1.48113e-06
1.44661e-06
-4.11133e-07
-4.1676e-07
0.000273974
-6.91629e-07
-6.93069e-07
-0.0011659
3.84352e-07
3.84547e-07
0.00116652
-0.00114614
-1.44023e-06
6.92285e-07
3.47052e-07
0.0011463
-4.30636e-07
1.16163e-06
1.83895e-07
7.90422e-07
-4.56699e-07
-1.13308e-06
1.29754e-07
-0.00114577
-1.43459e-06
6.92366e-07
3.46821e-07
0.00114593
-4.27828e-07
1.15617e-06
1.81024e-07
7.90263e-07
-4.59399e-07
-1.13295e-06
1.3277e-07
-0.000275858
1.46912e-06
1.4346e-06
-3.98227e-07
-4.03871e-07
0.000273756
-6.68345e-07
-6.69702e-07
-0.00116832
3.75329e-07
3.75448e-07
0.00116891
-0.0011467
-1.42794e-06
6.68951e-07
3.35684e-07
0.00114681
-4.19832e-07
1.16696e-06
1.89642e-07
7.97359e-07
-4.43494e-07
-1.11755e-06
1.37405e-07
-0.00114633
-1.42232e-06
6.68993e-07
3.35505e-07
0.00114644
-4.17008e-07
1.16138e-06
1.86762e-07
7.97126e-07
-4.46164e-07
-1.11746e-06
1.40348e-07
-0.000275619
1.45685e-06
1.42233e-06
-3.85695e-07
-3.913e-07
0.000273517
-6.4449e-07
-6.45687e-07
-0.00117063
3.65925e-07
3.66175e-07
0.00117119
-0.00114709
-1.41557e-06
6.45048e-07
3.23697e-07
0.00114716
-4.09275e-07
1.17224e-06
1.95263e-07
8.03925e-07
-4.30644e-07
-1.10251e-06
1.4487e-07
-0.00114672
-1.41002e-06
6.45072e-07
3.23512e-07
0.00114679
-4.0649e-07
1.16681e-06
1.9232e-07
8.03819e-07
-4.33306e-07
-1.1023e-06
1.47849e-07
-0.000275364
1.44453e-06
1.41005e-06
-3.73601e-07
-3.79148e-07
0.000273262
-6.19949e-07
-6.21021e-07
-0.00117282
3.56375e-07
3.56582e-07
0.00117335
-0.00114732
-1.40328e-06
6.20549e-07
3.10896e-07
0.00114736
-3.98992e-07
1.17752e-06
2.0078e-07
8.10375e-07
-4.1822e-07
-1.08784e-06
1.52168e-07
-0.00114696
-1.39767e-06
6.2056e-07
3.10625e-07
0.00114699
-3.96187e-07
1.17198e-06
1.97922e-07
8.10236e-07
-4.20835e-07
-1.08771e-06
1.55104e-07
-0.000275099
1.43227e-06
1.39781e-06
-3.61936e-07
-3.67465e-07
0.000272998
-5.95043e-07
-5.96064e-07
-0.00117488
3.46773e-07
3.47051e-07
0.00117538
-0.00114742
-1.39113e-06
5.95691e-07
2.97186e-07
0.00114742
-3.88986e-07
1.18268e-06
2.06204e-07
8.16591e-07
-4.06199e-07
-1.07371e-06
1.59225e-07
-0.00114705
-1.38564e-06
5.95695e-07
2.97051e-07
0.00114705
-3.86152e-07
1.17715e-06
2.03312e-07
8.16477e-07
-4.08849e-07
-1.07361e-06
1.62144e-07
-0.000274829
1.42006e-06
1.38567e-06
-3.50734e-07
-3.56215e-07
0.00027273
-5.69846e-07
-5.70836e-07
-0.00117683
3.37288e-07
3.37563e-07
0.00117729
-0.00114738
-1.3793e-06
5.70621e-07
2.82772e-07
0.00114735
-3.79297e-07
1.18758e-06
2.11439e-07
8.22584e-07
-3.94668e-07
-1.06024e-06
1.66042e-07
-0.00114701
-1.37374e-06
5.70573e-07
2.82599e-07
0.00114698
-3.765e-07
1.18208e-06
2.08555e-07
8.22434e-07
-3.9729e-07
-1.06017e-06
1.68953e-07
-0.000274558
1.4082e-06
1.37385e-06
-3.40112e-07
-3.45509e-07
0.000272461
-5.44505e-07
-5.45536e-07
-0.00117864
3.27909e-07
3.28191e-07
0.00117908
-0.00114723
-1.36766e-06
5.45339e-07
2.67632e-07
0.00114718
-3.69986e-07
1.1923e-06
2.16541e-07
8.2827e-07
-3.83526e-07
-1.0474e-06
1.72567e-07
-0.00114686
-1.36217e-06
5.45244e-07
2.67423e-07
0.00114681
-3.67192e-07
1.18675e-06
2.13678e-07
8.28104e-07
-3.86209e-07
-1.04726e-06
1.75522e-07
-0.00027429
1.39672e-06
1.36235e-06
-3.29978e-07
-3.35383e-07
0.000272196
-5.19e-07
-5.19991e-07
-0.00118033
3.18542e-07
3.18823e-07
0.00118073
-0.00114698
-1.35654e-06
5.19749e-07
2.51863e-07
0.0011469
-3.61008e-07
1.19679e-06
2.21396e-07
8.33748e-07
-3.72965e-07
-1.03502e-06
1.78858e-07
-0.00114661
-1.35105e-06
5.19607e-07
2.5172e-07
0.00114653
-3.58261e-07
1.19125e-06
2.18515e-07
8.33553e-07
-3.75593e-07
-1.03496e-06
1.81738e-07
-0.000274026
1.38553e-06
1.3512e-06
-3.20306e-07
-3.25735e-07
0.000271935
-4.93363e-07
-4.94285e-07
-0.00118189
3.09073e-07
3.09377e-07
0.00118226
-0.00114664
-1.34587e-06
4.94118e-07
2.35697e-07
0.00114654
-3.52456e-07
1.20092e-06
2.26003e-07
8.39007e-07
-3.62838e-07
-1.02321e-06
1.84852e-07
-0.00114627
-1.34037e-06
4.93901e-07
2.35661e-07
0.00114618
-3.49683e-07
1.19542e-06
2.23164e-07
8.38868e-07
-3.65466e-07
-1.02315e-06
1.87739e-07
-0.000273769
1.37484e-06
1.34052e-06
-3.11177e-07
-3.16618e-07
0.000271681
-4.6757e-07
-4.684e-07
-0.00118332
2.99484e-07
2.99805e-07
0.00118365
-0.00114623
-1.33578e-06
4.68379e-07
2.19313e-07
0.00114612
-3.44175e-07
1.20479e-06
2.30456e-07
8.44036e-07
-3.53142e-07
-1.01204e-06
1.90571e-07
-0.00114586
-1.33013e-06
4.6815e-07
2.19146e-07
0.00114575
-3.4143e-07
1.19932e-06
2.27627e-07
8.43949e-07
-3.55775e-07
-1.01193e-06
1.93417e-07
-0.00027352
1.36461e-06
1.3303e-06
-3.02573e-07
-3.08027e-07
0.000271435
-4.41695e-07
-4.42381e-07
-0.00118461
2.89678e-07
2.90048e-07
0.00118492
-0.00114576
-1.32595e-06
4.42402e-07
2.02893e-07
0.00114563
-3.36416e-07
1.20851e-06
2.34601e-07
8.4874e-07
-3.43889e-07
-1.00145e-06
1.95998e-07
-0.00114539
-1.32039e-06
4.42211e-07
2.02704e-07
0.00114527
-3.33592e-07
1.20301e-06
2.31812e-07
8.48672e-07
-3.46542e-07
-1.00132e-06
1.98846e-07
-0.000273279
1.3548e-06
1.3205e-06
-2.94444e-07
-2.99883e-07
0.000271198
-4.15842e-07
-4.16295e-07
-0.00118578
2.7964e-07
2.80036e-07
0.00118606
-0.00114524
-1.31663e-06
4.16408e-07
1.86607e-07
0.00114511
-3.29006e-07
1.21189e-06
2.38503e-07
8.53199e-07
-3.35091e-07
-9.91365e-07
2.01167e-07
-0.00114488
-1.31107e-06
4.16176e-07
1.86293e-07
0.00114474
-3.26136e-07
1.20643e-06
2.35784e-07
8.53105e-07
-3.37764e-07
-9.91229e-07
2.03962e-07
-0.000273047
1.34546e-06
1.31118e-06
-2.86787e-07
-2.92217e-07
0.00027097
-3.89925e-07
-4.01802e-07
-0.00118682
2.69323e-07
2.69789e-07
0.00118707
-0.00114469
-1.30782e-06
3.9038e-07
1.70442e-07
0.00114454
-3.21894e-07
1.21503e-06
2.42146e-07
8.57412e-07
-3.26732e-07
-9.81791e-07
2.06037e-07
-0.00114432
-1.30222e-06
3.9017e-07
1.70272e-07
0.00114418
-3.19128e-07
1.20959e-06
2.3939e-07
8.57277e-07
-3.29343e-07
-9.81687e-07
2.08876e-07
-0.000272825
1.33665e-06
1.30238e-06
-2.79624e-07
-2.85037e-07
0.000270751
-3.64073e-07
-3.64352e-07
-0.00118775
2.5857e-07
2.59083e-07
0.00118796
-0.00114411
-1.29956e-06
3.64476e-07
1.54976e-07
0.00114396
-3.12531e-07
1.21783e-06
2.42691e-07
8.6144e-07
-3.18737e-07
-9.72705e-07
2.10685e-07
-0.00114374
-1.2939e-06
3.64217e-07
1.54576e-07
0.00114359
-3.12469e-07
1.21244e-06
2.42855e-07
8.6131e-07
-3.21374e-07
-9.72568e-07
2.13507e-07
-0.000272613
1.32828e-06
1.29403e-06
-2.72896e-07
-2.78316e-07
0.000270542
-3.3818e-07
-3.38542e-07
-0.00118855
2.47484e-07
2.47998e-07
0.00118873
-0.00114351
-1.29161e-06
3.38594e-07
1.39663e-07
0.00114335
-3.06259e-07
1.22053e-06
2.45896e-07
8.65197e-07
-3.11167e-07
-9.64111e-07
2.15053e-07
-0.00114314
-1.28603e-06
3.38371e-07
1.39459e-07
0.00114299
-3.06231e-07
1.21508e-06
2.46012e-07
8.65074e-07
-3.13818e-07
-9.63981e-07
2.17869e-07
-0.00027241
1.32042e-06
1.28617e-06
-2.66652e-07
-2.72037e-07
0.000270342
-3.12591e-07
-3.12891e-07
-0.00118923
2.36026e-07
2.36463e-07
0.00118938
-0.0011429
-1.28417e-06
3.12955e-07
1.25043e-07
0.00114274
-3.00333e-07
1.22297e-06
2.48879e-07
8.68809e-07
-3.03952e-07
-9.56036e-07
2.19172e-07
-0.00114253
-1.27863e-06
3.12733e-07
1.24847e-07
0.00114238
-3.00315e-07
1.21747e-06
2.48903e-07
8.68666e-07
-3.06615e-07
-9.5582e-07
2.21991e-07
-0.000272217
1.31297e-06
1.27873e-06
-2.60759e-07
-2.66169e-07
0.000270153
-2.87228e-07
-2.8746e-07
-0.0011898
2.24067e-07
2.24502e-07
0.00118993
-0.00114228
-1.2772e-06
2.87511e-07
1.11332e-07
0.00114213
-2.94863e-07
1.22508e-06
2.51504e-07
8.72146e-07
-2.97154e-07
-9.48276e-07
2.23036e-07
-0.00114192
-1.27162e-06
2.87332e-07
1.11104e-07
0.00114176
-2.94807e-07
1.21963e-06
2.51556e-07
8.72024e-07
-2.99785e-07
-9.48123e-07
2.25854e-07
-0.000272034
1.30593e-06
1.2717e-06
-2.55276e-07
-2.60666e-07
0.000269973
-2.62086e-07
-2.62292e-07
-0.00119027
2.11614e-07
2.12003e-07
0.00119037
-0.00114167
-1.27068e-06
2.62384e-07
9.83217e-08
0.00114152
-2.89681e-07
1.22707e-06
2.53946e-07
8.75339e-07
-2.90677e-07
-9.40981e-07
2.26715e-07
-0.0011413
-1.26508e-06
2.62146e-07
9.81783e-08
0.00114115
-2.89652e-07
1.22154e-06
2.53996e-07
8.75226e-07
-2.93379e-07
-9.40844e-07
2.29486e-07
-0.000271861
1.29944e-06
1.26525e-06
-2.50292e-07
-2.55649e-07
0.000269802
-2.37336e-07
-2.3748e-07
-0.00119063
1.98723e-07
1.99084e-07
0.00119071
-0.00114107
-1.26453e-06
2.37641e-07
8.62332e-08
0.00114092
-2.84882e-07
1.22882e-06
2.56145e-07
8.78348e-07
-2.84563e-07
-9.34073e-07
2.30181e-07
-0.0011407
-1.25901e-06
2.37449e-07
8.61503e-08
0.00114055
-2.84892e-07
1.22332e-06
2.56172e-07
8.78219e-07
-2.87218e-07
-9.33977e-07
2.32998e-07
-0.000271697
1.2933e-06
1.25915e-06
-2.45629e-07
-2.50967e-07
0.000269641
5.2258e-06
5.2367e-06
0.000260566
-0.000259153
-5.94467e-06
-5.93101e-06
5.05346e-06
0.000261439
-0.000258684
-5.96309e-06
3.38096e-06
-5.22576e-06
5.04843e-06
0.000261472
-0.0002587
-5.97113e-06
3.37595e-06
5.22638e-06
0.000260579
-0.000259156
-5.91602e-06
-5.95955e-06
5.04661e-06
0.000261503
-0.000258715
-5.96877e-06
3.37084e-06
5.0534e-06
-5.2281e-06
0.000261447
-0.000258684
3.38601e-06
-5.97367e-06
1.06919e-05
1.05983e-05
-0.000252646
-0.000256096
-0.000255126
-0.000255126
-6.41918e-06
-4.11047e-06
-6.65461e-06
-6.41951e-06
-4.11137e-06
-6.66003e-06
-5.0414e-06
0.0010422
1.06512e-05
1.06034e-05
-0.000252649
-0.000256094
-0.000255129
-0.000255129
-6.42182e-06
-4.11079e-06
-6.65735e-06
-6.41688e-06
-4.10606e-06
-6.65241e-06
-5.04113e-06
0.00104208
1.07117e-05
1.0664e-05
-0.000252641
-0.000256089
-0.000255126
-0.000255121
-6.42163e-06
-4.11817e-06
-6.65719e-06
-6.42179e-06
-4.10831e-06
-6.65479e-06
-5.05605e-06
-5.04389e-06
0.00104214
1.07069e-05
1.06087e-05
-0.000252644
-0.000256091
-0.000255126
-0.000255126
-6.41662e-06
-4.11321e-06
-6.65229e-06
-6.42183e-06
-4.11101e-06
-6.6574e-06
-0.00025871
-5.96108e-06
3.36569e-06
-5.22559e-06
0.000261434
-0.000258682
3.38094e-06
-5.96343e-06
5.229e-06
0.000260559
-0.00025914
-5.91912e-06
-5.95666e-06
-0.000258694
3.37334e-06
-5.95814e-06
-5.23683e-06
0.0002615
-0.00025871
3.36842e-06
-5.96604e-06
-0.000259151
-5.945e-06
-5.93079e-06
5.6599e-06
5.69703e-06
-4.9537e-06
-4.94801e-06
0.000259111
-8.12182e-07
-7.76525e-07
0.000261577
-0.000259444
-2.75828e-07
-2.68763e-07
7.14114e-06
0.00105866
-4.59069e-06
-1.55084e-06
-2.11595e-06
-2.4917e-06
-6.63762e-06
-7.12044e-06
-2.99228e-06
-0.000263293
-0.000259718
-0.00026282
-5.67005e-06
1.46046e-05
7.08001e-06
0.00105902
-4.60931e-06
-1.54299e-06
-2.11878e-06
-2.50252e-06
-6.669e-06
-7.13765e-06
-3.008e-06
-0.000263368
-0.000259749
-0.000262861
0.00106199
2.12368e-06
-0.00106095
1.04474e-06
-1.75878e-06
-1.32188e-07
-7.47e-07
-1.54211e-06
-2.91874e-07
-9.1254e-07
3.63937e-07
8.20615e-07
0.00106241
2.12386e-06
-0.00106137
1.03917e-06
-1.76875e-06
-1.24618e-07
-7.51865e-07
-1.54803e-06
-2.92079e-07
-9.13198e-07
3.6932e-07
-4.95178e-06
-4.94409e-06
0.000259121
-7.79688e-07
0.000261602
-0.000259464
-2.72842e-07
-2.65173e-07
6.86388e-06
0.00105949
-4.61506e-06
-1.61062e-06
-2.13225e-06
-2.50092e-06
-6.65207e-06
-7.13282e-06
-3.00364e-06
-0.000263388
-0.000259777
-0.000262874
-5.66985e-06
1.4639e-05
7.17425e-06
0.0010588
-4.60959e-06
-1.55307e-06
-2.12392e-06
-2.50433e-06
-6.66892e-06
-7.1362e-06
-3.00774e-06
-0.000259718
-0.000263345
-0.000262833
0.00106301
2.13193e-06
-0.00106196
1.03327e-06
-1.72921e-06
-1.3463e-07
-7.47566e-07
-1.54539e-06
-2.92128e-07
-9.10413e-07
3.66216e-07
8.10005e-07
0.0010621
2.13352e-06
-0.00106108
1.05395e-06
-1.75855e-06
-1.29428e-07
-7.46803e-07
-1.54456e-06
-2.89126e-07
-9.14921e-07
3.64231e-07
1.46372e-05
7.16164e-06
0.00105861
-4.5906e-06
-1.55029e-06
-2.11311e-06
-2.49189e-06
-6.63832e-06
-2.99291e-06
-7.11851e-06
-0.000259713
-0.000263288
-0.000262815
2.13028e-06
-0.0010617
1.03705e-06
-1.7287e-06
-1.3145e-07
-7.43906e-07
-1.54257e-06
-2.9433e-07
3.60998e-07
-9.10101e-07
8.10174e-07
0.00106189
2.13395e-06
-0.00106087
1.05424e-06
-1.75819e-06
-1.29101e-07
-7.46095e-07
-1.5451e-06
-2.92185e-07
-9.12856e-07
3.66175e-07
-4.95695e-06
-4.944e-06
0.000259101
-7.7157e-07
0.000261553
-0.000259425
-2.75697e-07
-2.70697e-07
1.45362e-05
6.88265e-06
0.00105944
-4.61538e-06
-1.6109e-06
-2.13239e-06
-2.49971e-06
-6.65176e-06
-3.00266e-06
-7.12924e-06
-0.000259766
-0.000263386
-0.000262869
2.13572e-06
-0.0010614
1.0531e-06
-1.72619e-06
-1.33945e-07
-7.46583e-07
-1.53957e-06
-2.89619e-07
3.61009e-07
-9.12851e-07
7.71687e-07
0.00106291
2.13589e-06
-0.00106187
1.04193e-06
-1.72386e-06
-1.33901e-07
-7.4438e-07
-1.54261e-06
-2.91657e-07
-9.12904e-07
3.61212e-07
-0.000259441
-2.7318e-07
-2.70389e-07
1.65113e-06
1.61621e-06
-6.95638e-07
-7.04083e-07
0.000259709
-9.07246e-07
-8.6877e-07
0.000262816
-0.00026065
-1.98624e-07
-1.91267e-07
8.32693e-07
0.00106318
-6.82733e-07
8.67695e-07
-9.50371e-08
4.23624e-07
-8.49862e-07
-1.43365e-06
-2.54441e-07
-1.65595e-06
1.65288e-06
8.26685e-07
0.00106361
-6.8504e-07
8.76055e-07
-9.45939e-08
4.2903e-07
-8.53025e-07
-1.43947e-06
-2.52306e-07
0.00106712
1.38974e-06
-0.00106578
7.00005e-07
-1.60514e-06
-7.0128e-08
-6.63258e-07
-1.39332e-06
-2.26159e-07
-8.34654e-07
4.5962e-07
9.12652e-07
0.00106755
1.38974e-06
-0.00106621
6.9469e-07
-1.61026e-06
-7.00247e-08
-6.63281e-07
-1.39644e-06
-2.26299e-07
-8.35178e-07
4.62413e-07
-6.95828e-07
-7.02788e-07
0.000259727
-8.74309e-07
0.000262841
-0.000260662
-1.98206e-07
-1.93791e-07
8.26501e-07
0.0010642
-6.80551e-07
8.3214e-07
-9.72486e-08
4.26024e-07
-8.53137e-07
-1.43685e-06
-2.52412e-07
-1.65075e-06
1.65683e-06
8.31526e-07
0.00106329
-6.85123e-07
8.68201e-07
-9.4612e-08
4.23796e-07
-8.52224e-07
-1.43365e-06
-2.51788e-07
0.00106815
1.39074e-06
-0.00106682
6.99176e-07
-1.56765e-06
-7.45323e-08
-6.58508e-07
-1.39101e-06
-2.23744e-07
-8.34936e-07
4.62368e-07
9.01992e-07
0.00106723
1.38893e-06
-0.00106589
6.99944e-07
-1.60256e-06
-7.23688e-08
-6.63456e-07
-1.39331e-06
-2.25808e-07
-8.3445e-07
4.6271e-07
1.65296e-06
8.31513e-07
0.00106309
-6.8447e-07
8.65738e-07
-9.65184e-08
4.23396e-07
-8.52944e-07
-2.52371e-07
-1.43406e-06
1.39046e-06
-0.00106655
7.03927e-07
-1.57504e-06
-7.631e-08
-6.57885e-07
-1.3913e-06
-2.24122e-07
4.61832e-07
-8.35132e-07
9.04802e-07
0.00106702
1.38452e-06
-0.00106568
6.99271e-07
-1.60226e-06
-7.1967e-08
-6.62855e-07
-1.39349e-06
-2.26312e-07
-8.34933e-07
4.59599e-07
-6.98317e-07
-7.00527e-07
0.000259688
-8.65965e-07
0.000262789
-0.000260629
-1.9907e-07
-1.93619e-07
1.65288e-06
8.19557e-07
0.00106412
-6.79894e-07
8.27454e-07
-1.01079e-07
4.2092e-07
-8.502e-07
-2.56636e-07
-1.43152e-06
1.39027e-06
-0.00106622
6.98498e-07
-1.56492e-06
-7.65613e-08
-6.58126e-07
-1.38524e-06
-2.25939e-07
4.54509e-07
-8.34683e-07
8.69012e-07
0.00106805
1.38997e-06
-0.00106671
6.98621e-07
-1.56466e-06
-7.64122e-08
-6.58186e-07
-1.39375e-06
-2.26024e-07
-8.37597e-07
4.59581e-07
-0.000260636
-1.98282e-07
-1.93741e-07
1.60492e-06
1.5726e-06
-6.60797e-07
-6.69051e-07
0.000260968
-9.28034e-07
-8.9207e-07
0.000264095
-0.000261921
-1.79736e-07
-1.74828e-07
6.91526e-07
0.00106846
-6.64902e-07
9.11732e-07
-6.68651e-08
4.6197e-07
-8.34452e-07
-1.39337e-06
-2.23645e-07
-1.6102e-06
1.37511e-06
7.02221e-07
0.00106889
-6.65022e-07
9.17077e-07
-6.68174e-08
4.67525e-07
-8.37481e-07
-1.39907e-06
-2.18964e-07
0.00107247
1.359e-06
-0.00107114
6.74636e-07
-1.6061e-06
-5.59818e-08
-6.58924e-07
-1.40287e-06
-2.04153e-07
-8.28597e-07
4.71867e-07
9.3338e-07
0.00107289
1.35927e-06
-0.00107156
6.75388e-07
-1.61145e-06
-5.39545e-08
-6.61801e-07
-1.41111e-06
-1.995e-07
-8.34201e-07
4.80224e-07
-6.63461e-07
-6.66062e-07
0.000260988
-8.94923e-07
0.000264124
-0.000261946
-1.76862e-07
-1.72262e-07
6.90781e-07
0.0010695
-6.62853e-07
8.75809e-07
-7.1272e-08
4.64699e-07
-8.37249e-07
-1.39883e-06
-2.18848e-07
-1.60245e-06
1.37471e-06
6.97177e-07
0.00106857
-6.6519e-07
9.09029e-07
-6.69645e-08
4.6507e-07
-8.36858e-07
-1.39592e-06
-2.1855e-07
0.00107349
1.36049e-06
-0.00107217
6.73839e-07
-1.57097e-06
-5.81269e-08
-6.56754e-07
-1.40581e-06
-1.99502e-07
-8.34143e-07
4.74493e-07
9.28073e-07
0.00107257
1.35939e-06
-0.00107124
6.75115e-07
-1.60617e-06
-5.39645e-08
-6.618e-07
-1.40562e-06
-1.99194e-07
-8.33826e-07
4.74682e-07
1.38026e-06
6.91282e-07
0.00106837
-6.62156e-07
9.06441e-07
-7.106e-08
4.64566e-07
-8.37216e-07
-2.21345e-07
-1.39618e-06
1.36087e-06
-0.00107191
6.73819e-07
-1.57337e-06
-5.78276e-08
-6.56281e-07
-1.40354e-06
-2.02333e-07
4.71319e-07
-8.31909e-07
9.22459e-07
0.00107237
1.35945e-06
-0.00107104
6.7533e-07
-1.60118e-06
-5.82476e-08
-6.5654e-07
-1.40316e-06
-2.0194e-07
-8.31417e-07
4.71697e-07
-6.64137e-07
-6.68423e-07
0.000260952
-8.89356e-07
0.000264074
-0.000261904
-1.79904e-07
-1.7207e-07
1.37583e-06
6.96022e-07
0.0010694
-6.57496e-07
8.67979e-07
-7.5497e-08
4.61802e-07
-8.34932e-07
-2.21364e-07
-1.39398e-06
1.35976e-06
-0.00107157
6.73409e-07
-1.56831e-06
-6.0046e-08
-6.5379e-07
-1.40271e-06
-1.99369e-07
4.71819e-07
-8.33785e-07
8.89167e-07
0.0010734
1.36132e-06
-0.00107208
6.74657e-07
-1.56863e-06
-6.0396e-08
-6.54431e-07
-1.4012e-06
-2.0225e-07
-8.32098e-07
4.6873e-07
-0.000261918
-1.77322e-07
-1.72818e-07
1.60495e-06
1.56976e-06
-6.52987e-07
-6.58702e-07
0.000262232
-9.52497e-07