/*--------------------------------*- C++ -*----------------------------------*\
| =========                 |                                                 |
| \\      /  F ield         | OpenFOAM: The Open Source CFD Toolbox           |
|  \\    /   O peration     | Version:  v2012                                 |
|   \\  /    A nd           | Website:  www.openfoam.com                      |
|    \\/     M anipulation  |                                                 |
\*---------------------------------------------------------------------------*/
FoamFile
{
    version     2.0;
    format      ascii;
    class       volVectorField;
    location    "400";
    object      U;
}
// * * * * * * * * * * * * * * * * * * * * * * * * * * * * * * * * * * * * * //

dimensions      [0 1 -1 0 0 0 0];


internalField   nonuniform List<vector> 
85864
(
(0.000106228 0.000106195 0.100294)
(-0.000184914 0.000115519 0.10039)
(0.000115656 -0.000184878 0.10039)
(-0.00024793 -0.000247804 0.100398)
(9.72195e-05 9.71796e-05 0.100854)
(-0.000151408 9.35483e-05 0.100938)
(9.34921e-05 -0.000151482 0.100938)
(-0.000194178 -0.000194253 0.100971)
(9.70337e-05 9.70507e-05 0.101369)
(-0.000152299 9.09253e-05 0.101447)
(9.0959e-05 -0.000152207 0.101447)
(-0.0001947 -0.000194817 0.101474)
(9.48132e-05 9.47896e-05 0.101886)
(-0.000149347 8.7166e-05 0.101954)
(8.71906e-05 -0.000149246 0.101954)
(-0.000192248 -0.000192336 0.101967)
(9.14127e-05 9.14516e-05 0.102391)
(-0.000143675 8.24372e-05 0.102442)
(8.24154e-05 -0.000143706 0.102442)
(-0.000186948 -0.000186989 0.102435)
(8.79434e-05 8.8044e-05 0.102877)
(-0.000137742 7.84347e-05 0.102907)
(7.83269e-05 -0.000137677 0.102907)
(-0.00018145 -0.000181352 0.102874)
(8.48357e-05 8.48767e-05 0.103344)
(-0.000132325 7.51575e-05 0.103348)
(7.50754e-05 -0.000132204 0.103348)
(-0.000176794 -0.000176601 0.103285)
(8.21348e-05 8.21316e-05 0.103793)
(-0.00012761 7.25154e-05 0.103768)
(7.24708e-05 -0.000127635 0.103767)
(-0.000173118 -0.000173164 0.103668)
(7.98544e-05 7.9814e-05 0.104226)
(-0.000123536 7.04935e-05 0.104168)
(7.05518e-05 -0.000123627 0.104167)
(-0.000170236 -0.000170476 0.104027)
(7.79146e-05 7.78126e-05 0.104646)
(-0.000120017 6.91768e-05 0.10455)
(6.92209e-05 -0.000120025 0.10455)
(-0.000168092 -0.000168245 0.104363)
(7.61625e-05 7.60779e-05 0.105053)
(-0.000116857 6.8117e-05 0.104917)
(6.81628e-05 -0.000116796 0.104917)
(-0.000166542 -0.000166601 0.104678)
(7.4565e-05 7.45269e-05 0.10545)
(-0.000113906 6.71197e-05 0.105269)
(6.71022e-05 -0.000113805 0.105269)
(-0.000165206 -0.000165234 0.104972)
(7.30806e-05 7.30728e-05 0.105836)
(-0.000111223 6.61129e-05 0.105606)
(6.60823e-05 -0.000111179 0.105606)
(-0.000164051 -0.000164145 0.105245)
(7.164e-05 7.16155e-05 0.106213)
(-0.000108724 6.50368e-05 0.10593)
(6.50308e-05 -0.000108713 0.10593)
(-0.000163005 -0.000163074 0.105497)
(7.02424e-05 7.01713e-05 0.106581)
(-0.000106276 6.39958e-05 0.106239)
(6.40124e-05 -0.000106278 0.106239)
(-0.000161744 -0.000161788 0.105727)
(6.88426e-05 6.87472e-05 0.10694)
(-0.000103892 6.30101e-05 0.106534)
(6.30307e-05 -0.00010389 0.106534)
(-0.000160238 -0.000160292 0.105934)
(6.74458e-05 6.73682e-05 0.10729)
(-0.000101571 6.20182e-05 0.106813)
(6.20193e-05 -0.000101552 0.106813)
(-0.00015863 -0.000158656 0.106117)
(6.60894e-05 6.60576e-05 0.107631)
(-9.93011e-05 6.10239e-05 0.107077)
(6.10339e-05 -9.93786e-05 0.107077)
(-0.000156824 -0.000156834 0.106274)
(6.4784e-05 6.47881e-05 0.107963)
(-9.73192e-05 6.00818e-05 0.107325)
(6.00779e-05 -9.74148e-05 0.107325)
(-0.000154761 -0.000154768 0.106405)
(6.35096e-05 6.35162e-05 0.108287)
(-9.54649e-05 5.90847e-05 0.107556)
(5.90961e-05 -9.55549e-05 0.107556)
(-0.000152327 -0.000152352 0.106509)
(6.22612e-05 6.22713e-05 0.108602)
(-9.36319e-05 5.80669e-05 0.10777)
(5.80615e-05 -9.37341e-05 0.10777)
(-0.000149465 -0.000149507 0.106585)
(6.10376e-05 6.10378e-05 0.108908)
(-9.16989e-05 5.69139e-05 0.107966)
(5.69198e-05 -9.18191e-05 0.107966)
(-0.000146101 -0.000146159 0.106634)
(5.97966e-05 5.97972e-05 0.109205)
(-8.96041e-05 5.57272e-05 0.108144)
(5.5718e-05 -8.97327e-05 0.108144)
(-0.00014221 -0.000142251 0.106658)
(5.85542e-05 5.85409e-05 0.109494)
(-8.7354e-05 5.45146e-05 0.108303)
(5.44911e-05 -8.74379e-05 0.108303)
(-0.000137919 -0.00013796 0.106657)
(5.73137e-05 5.72864e-05 0.109773)
(-8.49691e-05 5.32611e-05 0.108444)
(5.3221e-05 -8.50447e-05 0.108443)
(-0.000133319 -0.000133344 0.106633)
(5.60119e-05 5.59663e-05 0.110042)
(-8.24308e-05 5.19476e-05 0.108565)
(5.18921e-05 -8.24808e-05 0.108565)
(-0.000128444 -0.000128455 0.10659)
(5.46599e-05 5.46045e-05 0.110302)
(-7.97618e-05 5.05457e-05 0.108669)
(5.04803e-05 -7.98076e-05 0.108668)
(-0.000123372 -0.000123397 0.106529)
(5.32522e-05 5.31935e-05 0.110552)
(-7.69262e-05 4.89989e-05 0.108754)
(4.89498e-05 -7.69693e-05 0.108753)
(-0.00011817 -0.000118199 0.106454)
(5.18236e-05 5.17721e-05 0.110791)
(-7.39583e-05 4.73066e-05 0.108821)
(4.72543e-05 -7.39976e-05 0.108821)
(-0.000112859 -0.000112891 0.106369)
(5.03724e-05 5.03164e-05 0.11102)
(-7.0869e-05 4.54953e-05 0.108872)
(4.54588e-05 -7.09091e-05 0.108872)
(-0.000107569 -0.000107605 0.106275)
(4.88839e-05 4.88454e-05 0.111237)
(-6.76886e-05 4.35943e-05 0.108907)
(4.35571e-05 -6.77257e-05 0.108907)
(-0.000102378 -0.000102405 0.106176)
(4.73895e-05 4.73567e-05 0.111444)
(-6.44425e-05 4.15867e-05 0.108928)
(4.15435e-05 -6.44678e-05 0.108927)
(-9.73054e-05 -9.73247e-05 0.106074)
(4.58984e-05 4.58657e-05 0.111638)
(-6.11633e-05 3.94936e-05 0.108935)
(3.9449e-05 -6.119e-05 0.108934)
(-9.23788e-05 -9.23814e-05 0.10597)
(4.44254e-05 4.43851e-05 0.111821)
(-5.78729e-05 3.73223e-05 0.10893)
(3.7292e-05 -5.78971e-05 0.108929)
(-8.76748e-05 -8.76631e-05 0.105866)
(4.29559e-05 4.29253e-05 0.111992)
(-5.45909e-05 3.51054e-05 0.108915)
(3.50794e-05 -5.46128e-05 0.108914)
(-8.31847e-05 -8.31806e-05 0.105764)
(4.15108e-05 4.14742e-05 0.112151)
(-5.1339e-05 3.2865e-05 0.10889)
(3.28434e-05 -5.13492e-05 0.108889)
(-7.88859e-05 -7.88849e-05 0.105664)
(4.00364e-05 4.00123e-05 0.112298)
(-4.8122e-05 3.06287e-05 0.108857)
(3.05991e-05 -4.81189e-05 0.108856)
(-7.4858e-05 -7.4861e-05 0.105566)
(3.8568e-05 3.85485e-05 0.112432)
(-4.49331e-05 2.83764e-05 0.108817)
(2.83559e-05 -4.49335e-05 0.108816)
(-7.1049e-05 -7.1058e-05 0.105472)
(3.70738e-05 3.70631e-05 0.112554)
(-4.18031e-05 2.61822e-05 0.108772)
(2.61463e-05 -4.18078e-05 0.108771)
(-6.74493e-05 -6.74618e-05 0.105381)
(3.55678e-05 3.55531e-05 0.112663)
(-3.87349e-05 2.40342e-05 0.108722)
(2.39892e-05 -3.87381e-05 0.108721)
(-6.40732e-05 -6.40877e-05 0.105294)
(3.40245e-05 3.40235e-05 0.112761)
(-3.57371e-05 2.19333e-05 0.108669)
(2.19102e-05 -3.57396e-05 0.108668)
(-6.09269e-05 -6.09419e-05 0.10521)
(3.24381e-05 3.24504e-05 0.112847)
(-3.28208e-05 1.99363e-05 0.108613)
(1.9899e-05 -3.28165e-05 0.108613)
(-5.79777e-05 -5.79937e-05 0.105131)
(3.0832e-05 3.08429e-05 0.112921)
(-2.99792e-05 1.79998e-05 0.108556)
(1.79708e-05 -2.99783e-05 0.108556)
(-5.52254e-05 -5.52444e-05 0.105055)
(2.91913e-05 2.91935e-05 0.112985)
(-2.72184e-05 1.61579e-05 0.108498)
(1.61308e-05 -2.72165e-05 0.108498)
(-5.26483e-05 -5.26698e-05 0.104982)
(2.75154e-05 2.75187e-05 0.113038)
(-2.45654e-05 1.44331e-05 0.10844)
(1.44065e-05 -2.45552e-05 0.108439)
(-5.02162e-05 -5.02367e-05 0.104914)
(2.5798e-05 2.58026e-05 0.113081)
(-2.19932e-05 1.27973e-05 0.108382)
(1.27804e-05 -2.1994e-05 0.108381)
(-4.80322e-05 -4.8049e-05 0.104849)
(2.40542e-05 2.40538e-05 0.113114)
(-1.95254e-05 1.12617e-05 0.108325)
(1.1249e-05 -1.95219e-05 0.108324)
(-4.59652e-05 -4.59706e-05 0.104788)
(0.000138134 0.000138118 0.100281)
(0.000126538 0.000159936 0.100229)
(-0.000126456 0.000159907 0.100229)
(-0.000138103 0.000138028 0.100281)
(0.000160015 0.000126481 0.100229)
(0.000160004 -0.000126486 0.100229)
(9.38598e-05 9.3819e-05 0.100152)
(-9.38223e-05 9.38031e-05 0.100152)
(9.38393e-05 -9.38478e-05 0.100152)
(-9.38674e-05 -9.38269e-05 0.100152)
(-0.000159945 0.000126444 0.100229)
(-0.000160026 -0.000126448 0.100229)
(0.000138173 -0.000138127 0.100281)
(0.000126506 -0.000159968 0.100229)
(-0.000126537 -0.000159935 0.100229)
(-0.000138186 -0.000138071 0.100281)
(0.000247949 0.000247847 0.100398)
(0.000112844 0.000112751 0.100897)
(0.000115649 0.000184901 0.10039)
(-0.000115546 0.000184947 0.10039)
(9.32293e-05 0.000149064 0.100817)
(-9.30474e-05 0.000149043 0.100817)
(-0.000247822 0.000247735 0.100398)
(-0.000112652 0.000112501 0.100897)
(0.000185014 0.000115622 0.10039)
(0.000184951 -0.00011562 0.10039)
(0.000149117 9.32172e-05 0.100817)
(0.000148962 -9.3071e-05 0.100817)
(-0.000185063 -0.000115583 0.10039)
(-0.000148947 9.30305e-05 0.100817)
(-0.000149071 -9.30363e-05 0.100817)
(0.000247893 -0.000247872 0.100399)
(0.000112666 -0.000112698 0.100897)
(-0.000115764 -0.00018482 0.10039)
(9.30521e-05 -0.000148973 0.100817)
(-9.29964e-05 -0.000148876 0.100817)
(-0.000112653 -0.000112626 0.100897)
(0.000194464 0.000194308 0.100971)
(0.000105449 0.000105403 0.101399)
(9.36608e-05 0.000151566 0.100939)
(-9.35144e-05 0.00015155 0.100938)
(9.14387e-05 0.000152198 0.101319)
(-9.13938e-05 0.00015214 0.101319)
(-0.000194274 0.000194071 0.100971)
(-0.000105434 0.000105251 0.101399)
(0.000151548 9.36659e-05 0.100939)
(0.000151402 -9.35392e-05 0.100939)
(0.000152135 9.14891e-05 0.101319)
(0.000152148 -9.15032e-05 0.101319)
(-0.00015157 -9.34448e-05 0.100938)
(-0.000152128 9.14295e-05 0.101319)
(-0.000152159 -9.13421e-05 0.101319)
(0.000194242 -0.000194268 0.100971)
(0.000105484 -0.000105446 0.101399)
(-9.34782e-05 -0.000151288 0.100938)
(9.14456e-05 -0.000152108 0.101319)
(-9.1433e-05 -0.000152039 0.101319)
(-0.0001053 -0.000105408 0.101399)
(0.000194816 0.000194756 0.101475)
(9.77745e-05 9.77344e-05 0.101896)
(9.09011e-05 0.000152319 0.101448)
(-9.08966e-05 0.000152252 0.101447)
(8.8324e-05 0.000150473 0.101829)
(-8.83214e-05 0.000150417 0.101829)
(-0.000194803 0.000194629 0.101474)
(-9.77895e-05 9.76262e-05 0.101896)
(0.000152254 9.09678e-05 0.101448)
(0.000152306 -9.09932e-05 0.101447)
(0.000150425 8.83626e-05 0.101829)
(0.00015049 -8.83356e-05 0.101829)
(-0.000152287 -9.09126e-05 0.101447)
(-0.000150513 8.83069e-05 0.101829)
(-0.000150476 -8.84271e-05 0.101829)
(0.00019485 -0.000194823 0.101474)
(9.77348e-05 -9.77891e-05 0.101896)
(-9.09998e-05 -0.000152248 0.101447)
(8.83397e-05 -0.000150376 0.101828)
(-8.84584e-05 -0.000150546 0.101829)
(-9.78656e-05 -9.79263e-05 0.101896)
(0.000192206 0.000192139 0.101967)
(8.84572e-05 8.84763e-05 0.10237)
(8.72039e-05 0.000149309 0.101954)
(-8.71957e-05 0.000149253 0.101954)
(8.36465e-05 0.000145204 0.102322)
(-8.35928e-05 0.000145116 0.102322)
(-0.000192204 0.000192054 0.101967)
(-8.84443e-05 8.8333e-05 0.10237)
(0.000149275 8.72282e-05 0.101954)
(0.000149306 -8.71872e-05 0.101954)
(0.000145116 8.37036e-05 0.102322)
(0.000145033 -8.35476e-05 0.102322)
(-0.000149317 -8.73001e-05 0.101954)
(-0.000145174 8.36063e-05 0.102322)
(-0.00014517 -8.37079e-05 0.102322)
(0.000192137 -0.000192206 0.101967)
(8.82694e-05 -8.84918e-05 0.10237)
(-8.73201e-05 -0.000149394 0.101954)
(8.35911e-05 -0.00014519 0.102322)
(-8.37152e-05 -0.000145204 0.102322)
(-8.85058e-05 -8.85223e-05 0.10237)
(0.000186949 0.000186941 0.102435)
(7.96451e-05 7.98036e-05 0.102816)
(8.24673e-05 0.00014374 0.102442)
(-8.24232e-05 0.00014365 0.102442)
(7.93453e-05 0.000139355 0.102793)
(-7.92923e-05 0.000139265 0.102793)
(-0.000186922 0.000186793 0.102435)
(-7.96306e-05 7.96923e-05 0.102816)
(0.000143609 8.25405e-05 0.102442)
(0.000143506 -8.237e-05 0.102442)
(0.0001391 7.94507e-05 0.102793)
(0.000139032 -7.91763e-05 0.102793)
(-0.000143677 -8.24854e-05 0.102442)
(-0.000139189 7.93559e-05 0.102793)
(-0.000139217 -7.92055e-05 0.102793)
(0.000186708 -0.000186985 0.102435)
(7.95017e-05 -7.95587e-05 0.102816)
(-8.25111e-05 -0.000143676 0.102442)
(7.92595e-05 -0.000139162 0.102793)
(-7.92537e-05 -0.000139041 0.102793)
(-7.96209e-05 -7.94877e-05 0.102816)
(0.000181538 0.000181638 0.102874)
(7.19186e-05 7.20162e-05 0.103234)
(7.84171e-05 0.000137924 0.102907)
(-7.83533e-05 0.00013785 0.102907)
(7.5937e-05 0.000133799 0.10324)
(-7.5816e-05 0.000133704 0.10324)
(-0.00018149 0.000181514 0.102874)
(-7.18584e-05 7.19349e-05 0.103234)
(0.000137662 7.85144e-05 0.102907)
(0.000137623 -7.82103e-05 0.102907)
(0.000133575 7.59725e-05 0.10324)
(0.000133587 -7.56363e-05 0.10324)
(-0.000137773 -7.82208e-05 0.102907)
(-0.000133612 7.59185e-05 0.10324)
(-0.000133623 -7.56613e-05 0.10324)
(0.000181328 -0.000181428 0.102874)
(7.18026e-05 -7.16436e-05 0.103234)
(-7.82771e-05 -0.000137541 0.102907)
(7.58283e-05 -0.000133482 0.10324)
(-7.57017e-05 -0.000133341 0.10324)
(-7.18312e-05 -7.15722e-05 0.103234)
(0.000176941 0.000176971 0.103284)
(6.51245e-05 6.51686e-05 0.103625)
(7.5205e-05 0.000132502 0.103348)
(-7.507e-05 0.000132398 0.103348)
(7.32352e-05 0.000128864 0.103665)
(-7.31047e-05 0.000128712 0.103665)
(-0.00017684 0.000176859 0.103284)
(-6.50707e-05 6.50461e-05 0.103625)
(0.000132302 7.52175e-05 0.103348)
(0.00013229 -7.48862e-05 0.103348)
(0.000128698 7.32086e-05 0.103665)
(0.000128586 -7.29366e-05 0.103665)
(-0.000132324 -7.49425e-05 0.103348)
(-0.000128722 7.31217e-05 0.103665)
(-0.000128699 -7.31212e-05 0.103665)
(0.000176732 -0.000176667 0.103284)
(6.48889e-05 -6.49534e-05 0.103625)
(-7.49628e-05 -0.000132077 0.103348)
(7.30617e-05 -0.000128703 0.103665)
(-7.30778e-05 -0.000128637 0.103665)
(-6.50778e-05 -6.5028e-05 0.103625)
(0.000173212 0.00017318 0.103668)
(5.91694e-05 5.92321e-05 0.103993)
(7.26467e-05 0.000127728 0.103768)
(-7.25314e-05 0.000127572 0.103768)
(7.10863e-05 0.000124571 0.104069)
(-7.10078e-05 0.000124418 0.104069)
(-0.000173122 0.000173032 0.103668)
(-5.91434e-05 5.91229e-05 0.103993)
(0.000127579 7.2611e-05 0.103768)
(0.000127454 -7.23794e-05 0.103768)
(0.000124449 7.10254e-05 0.104069)
(0.000124403 -7.09245e-05 0.104069)
(-0.000127583 -7.25922e-05 0.103768)
(-0.000124494 7.09394e-05 0.10407)
(-0.000124455 -7.11341e-05 0.104069)
(0.000172888 -0.000173078 0.103668)
(5.9074e-05 -5.91489e-05 0.103993)
(-7.25317e-05 -0.000127587 0.103768)
(7.09699e-05 -0.000124587 0.104069)
(-7.10634e-05 -0.00012459 0.104069)
(-5.91758e-05 -5.9329e-05 0.103993)
(0.000170295 0.000170192 0.104027)
(5.4192e-05 5.43194e-05 0.104338)
(7.0672e-05 0.000123608 0.104168)
(-7.06034e-05 0.000123463 0.104168)
(6.97087e-05 0.000120921 0.104456)
(-6.96449e-05 0.000120811 0.104456)
(-0.000170223 0.000170065 0.104027)
(-5.41629e-05 5.42759e-05 0.104338)
(0.000123493 7.05771e-05 0.104168)
(0.000123503 -7.05419e-05 0.104168)
(0.000120825 6.95028e-05 0.104456)
(0.000120979 -6.96194e-05 0.104456)
(-0.000123492 -7.06877e-05 0.104168)
(-0.000120848 6.94693e-05 0.104456)
(-0.000120803 -6.95759e-05 0.104456)
(0.00017005 -0.000170317 0.104027)
(5.43881e-05 -5.40882e-05 0.104338)
(-7.06147e-05 -0.000123642 0.104168)
(6.95055e-05 -0.000120879 0.104456)
(-6.94801e-05 -0.000120914 0.104456)
(-5.416e-05 -5.42119e-05 0.104338)
(0.000168183 0.000168138 0.104363)
(4.97528e-05 4.98687e-05 0.104663)
(6.94226e-05 0.000120089 0.10455)
(-6.93597e-05 0.000119986 0.10455)
(6.86607e-05 0.000117721 0.104827)
(-6.85684e-05 0.000117612 0.104827)
(-0.000168111 0.000168069 0.104363)
(-4.96629e-05 4.98156e-05 0.104663)
(0.000119996 6.9211e-05 0.10455)
(0.000120174 -6.93505e-05 0.104551)
(0.000117602 6.84572e-05 0.104827)
(0.000117773 -6.85873e-05 0.104827)
(-0.000119982 -6.9277e-05 0.10455)
(-0.000117618 6.83746e-05 0.104827)
(-0.00011762 -6.8455e-05 0.104827)
(0.000168205 -0.000168146 0.104363)
(4.99255e-05 -4.96625e-05 0.104663)
(-6.91796e-05 -0.000120066 0.10455)
(6.84323e-05 -0.000117576 0.104827)
(-6.83699e-05 -0.000117616 0.104827)
(-4.97212e-05 -4.96999e-05 0.104663)
(0.000166626 0.000166599 0.104678)
(4.5521e-05 4.5634e-05 0.104968)
(6.83937e-05 0.00011695 0.104917)
(-6.83131e-05 0.000116845 0.104917)
(6.76281e-05 0.000114722 0.105182)
(-6.75626e-05 0.000114609 0.105182)
(-0.000166526 0.000166514 0.104678)
(-4.54855e-05 4.55882e-05 0.104968)
(0.000116825 6.82065e-05 0.104917)
(0.000116977 -6.83293e-05 0.104917)
(0.000114551 6.74894e-05 0.105182)
(0.000114622 -6.7557e-05 0.105182)
(-0.000116868 -6.81906e-05 0.104917)
(-0.000114621 6.73684e-05 0.105182)
(-0.000114644 -6.74145e-05 0.105182)
(0.00016663 -0.000166582 0.104678)
(4.55693e-05 -4.54844e-05 0.104968)
(-6.8109e-05 -0.00011684 0.104917)
(6.73667e-05 -0.00011453 0.105182)
(-6.73522e-05 -0.000114571 0.105182)
(-4.55145e-05 -4.54826e-05 0.104968)
(0.00016527 0.00016527 0.104972)
(4.15563e-05 4.16442e-05 0.105253)
(6.73689e-05 0.000114006 0.105269)
(-6.73105e-05 0.000113883 0.105269)
(6.66087e-05 0.000111963 0.105523)
(-6.6542e-05 0.000111872 0.105523)
(-0.0001652 0.000165175 0.104972)
(-4.15536e-05 4.16074e-05 0.105253)
(0.000113814 6.72534e-05 0.105269)
(0.000113861 -6.72998e-05 0.105269)
(0.000111786 6.65394e-05 0.105523)
(0.000111786 -6.65222e-05 0.105523)
(-0.00011393 -6.71614e-05 0.105269)
(-0.000111856 6.63744e-05 0.105523)
(-0.00011188 -6.63915e-05 0.105523)
(0.000165168 -0.000165246 0.104972)
(4.14928e-05 -4.15523e-05 0.105253)
(-6.71052e-05 -0.000113856 0.105269)
(6.6342e-05 -0.000111802 0.105523)
(-6.63602e-05 -0.000111808 0.105523)
(-4.15352e-05 -4.1546e-05 0.105253)
(0.000164124 0.000164098 0.105245)
(3.76288e-05 3.77603e-05 0.105519)
(6.63395e-05 0.000111327 0.105606)
(-6.62772e-05 0.000111244 0.105606)
(6.5565e-05 0.000109453 0.10585)
(-6.54982e-05 0.000109377 0.10585)
(-0.000164109 0.000164022 0.105245)
(-3.75294e-05 3.76904e-05 0.105519)
(0.000111163 6.62925e-05 0.105606)
(0.000111149 -6.62557e-05 0.105607)
(0.000109331 6.54743e-05 0.10585)
(0.000109304 -6.54835e-05 0.10585)
(-0.000111247 -6.61285e-05 0.105606)
(-0.000109335 6.53052e-05 0.10585)
(-0.000109369 -6.5362e-05 0.10585)
(0.000163934 -0.000164153 0.105245)
(3.76433e-05 -3.75323e-05 0.105519)
(-6.60968e-05 -0.00011118 0.105606)
(6.52909e-05 -0.000109318 0.10585)
(-6.52823e-05 -0.000109314 0.10585)
(-3.7612e-05 -3.75428e-05 0.105519)
(0.000163098 0.000163051 0.105497)
(3.35256e-05 3.36006e-05 0.105764)
(6.53043e-05 0.000108832 0.10593)
(-6.5235e-05 0.000108772 0.10593)
(6.45755e-05 0.000106984 0.106163)
(-6.4489e-05 0.000106945 0.106163)
(-0.000163024 0.000162989 0.105497)
(-3.33266e-05 3.35508e-05 0.105764)
(0.000108732 6.52003e-05 0.10593)
(0.00010871 -6.52207e-05 0.10593)
(0.000106948 6.43941e-05 0.106163)
(0.000106944 -6.44807e-05 0.106163)
(-0.000108759 -6.51031e-05 0.10593)
(-0.000106875 6.42483e-05 0.106163)
(-0.000106925 -6.43557e-05 0.106163)
(0.000162928 -0.000163055 0.105498)
(3.36218e-05 -3.33404e-05 0.105764)
(-6.5014e-05 -0.000108708 0.10593)
(6.42655e-05 -0.000106876 0.106163)
(-6.42126e-05 -0.000106869 0.106163)
(-3.34489e-05 -3.33477e-05 0.105764)
(0.000161878 0.000161784 0.105727)
(2.94403e-05 2.94319e-05 0.105986)
(6.43267e-05 0.000106368 0.106239)
(-6.42414e-05 0.000106352 0.106239)
(6.3587e-05 0.000104578 0.106461)
(-6.35141e-05 0.000104575 0.106461)
(-0.000161727 0.000161747 0.105727)
(-2.92499e-05 2.94297e-05 0.105987)
(0.000106357 6.41295e-05 0.106239)
(0.000106359 -6.42285e-05 0.106239)
(0.000104592 6.33664e-05 0.106461)
(0.000104613 -6.34933e-05 0.106461)
(-0.000106325 -6.41085e-05 0.106239)
(-0.000104477 6.32689e-05 0.106461)
(-0.000104534 -6.336e-05 0.106461)
(0.000161782 -0.000161772 0.105728)
(2.95129e-05 -2.92488e-05 0.105986)
(-6.39579e-05 -0.000106267 0.106239)
(6.3283e-05 -0.000104477 0.106461)
(-6.32068e-05 -0.000104463 0.106461)
(-2.9307e-05 -2.92463e-05 0.105986)
(0.000160402 0.000160257 0.105934)
(2.55642e-05 2.55614e-05 0.106186)
(6.33358e-05 0.00010397 0.106533)
(-6.32505e-05 0.000103985 0.106533)
(6.25716e-05 0.000102237 0.106744)
(-6.2498e-05 0.000102243 0.106744)
(-0.000160257 0.000160262 0.105934)
(-2.54092e-05 2.55281e-05 0.106186)
(0.000104003 6.31114e-05 0.106534)
(0.000104031 -6.32399e-05 0.106534)
(0.000102253 6.23627e-05 0.106745)
(0.000102283 -6.24869e-05 0.106745)
(-0.000103952 -6.31085e-05 0.106533)
(-0.000102136 6.22694e-05 0.106745)
(-0.000102201 -6.23408e-05 0.106745)
(0.000160317 -0.000160292 0.105934)
(2.56102e-05 -2.53993e-05 0.106186)
(-6.29587e-05 -0.000103874 0.106534)
(6.22794e-05 -0.000102127 0.106745)
(-6.22119e-05 -0.000102095 0.106745)
(-2.54439e-05 -2.5371e-05 0.106186)
(0.00015877 0.000158644 0.106117)
(2.19929e-05 2.20324e-05 0.106361)
(6.23097e-05 0.000101634 0.106813)
(-6.22342e-05 0.000101675 0.106813)
(6.15398e-05 9.99801e-05 0.107012)
(-6.14717e-05 9.99586e-05 0.107012)
(-0.000158657 0.000158641 0.106117)
(-2.18562e-05 2.19531e-05 0.106361)
(0.000101663 6.21095e-05 0.106813)
(0.000101694 -6.22312e-05 0.106813)
(9.99726e-05 6.13829e-05 0.107013)
(0.000100001 -6.14906e-05 0.107012)
(-0.000101637 -6.20855e-05 0.106813)
(-9.98337e-05 6.12647e-05 0.107013)
(-9.99231e-05 -6.13146e-05 0.107012)
(0.000158675 -0.000158683 0.106117)
(2.2035e-05 -2.18644e-05 0.10636)
(-6.19642e-05 -0.000101516 0.106813)
(6.12763e-05 -9.98723e-05 0.107013)
(-6.12206e-05 -9.9766e-05 0.107013)
(-2.18986e-05 -2.18079e-05 0.106361)
(0.000156929 0.000156852 0.106274)
(1.86609e-05 1.87369e-05 0.106509)
(6.12884e-05 9.94728e-05 0.107077)
(-6.12182e-05 9.94254e-05 0.107077)
(6.05612e-05 9.80118e-05 0.107264)
(-6.05056e-05 9.79179e-05 0.107264)
(-0.00015683 0.000156821 0.106274)
(-1.85624e-05 1.8645e-05 0.10651)
(9.94641e-05 6.11469e-05 0.107077)
(9.94954e-05 -6.12512e-05 0.107077)
(9.79699e-05 6.04599e-05 0.107265)
(9.79921e-05 -6.05427e-05 0.107264)
(-9.93916e-05 -6.10704e-05 0.107077)
(-9.77859e-05 6.032e-05 0.107265)
(-9.78807e-05 -6.0357e-05 0.107264)
(0.000156853 -0.000156889 0.106274)
(1.87136e-05 -1.85838e-05 0.106509)
(-6.09862e-05 -9.92233e-05 0.107077)
(6.03218e-05 -9.78839e-05 0.107265)
(-6.02792e-05 -9.77133e-05 0.107265)
(-1.86014e-05 -1.85184e-05 0.106509)
(0.000154854 0.000154809 0.106405)
(1.55178e-05 1.56234e-05 0.106631)
(6.03106e-05 9.75565e-05 0.107325)
(-6.0261e-05 9.74466e-05 0.107325)
(5.95856e-05 9.60921e-05 0.107499)
(-5.9544e-05 9.60489e-05 0.1075)
(-0.00015478 0.000154766 0.106405)
(-1.54475e-05 1.55247e-05 0.106631)
(9.74893e-05 6.02255e-05 0.107325)
(9.75085e-05 -6.03018e-05 0.107325)
(9.60394e-05 5.9497e-05 0.1075)
(9.60736e-05 -5.95777e-05 0.107499)
(-9.74051e-05 -6.01215e-05 0.107325)
(-9.59135e-05 5.93393e-05 0.1075)
(-9.59812e-05 -5.93978e-05 0.1075)
(0.000154777 -0.000154844 0.106405)
(1.55633e-05 -1.54848e-05 0.106631)
(-6.00427e-05 -9.72378e-05 0.107325)
(5.93469e-05 -9.60029e-05 0.1075)
(-5.93137e-05 -9.58379e-05 0.1075)
(-1.54939e-05 -1.54336e-05 0.106631)
(0.000152415 0.000152394 0.106508)
(1.25702e-05 1.26699e-05 0.106725)
(5.93237e-05 9.56166e-05 0.107556)
(-5.92987e-05 9.55901e-05 0.107556)
(5.855e-05 9.41679e-05 0.107718)
(-5.85454e-05 9.42202e-05 0.107718)
(-0.000152333 0.000152318 0.106509)
(-1.25506e-05 1.25546e-05 0.106726)
(9.55812e-05 5.9241e-05 0.107556)
(9.56108e-05 -5.93345e-05 0.107556)
(9.41747e-05 5.8468e-05 0.107718)
(9.42089e-05 -5.85731e-05 0.107718)
(-9.55258e-05 -5.91624e-05 0.107556)
(-9.40864e-05 5.83314e-05 0.107718)
(-9.41342e-05 -5.8405e-05 0.107718)
(0.000152326 -0.000152429 0.106509)
(1.25964e-05 -1.25688e-05 0.106725)
(-5.90744e-05 -9.53885e-05 0.107556)
(5.83324e-05 -9.4177e-05 0.107718)
(-5.82919e-05 -9.40196e-05 0.107718)
(-1.25337e-05 -1.24985e-05 0.106725)
(0.000149545 0.000149544 0.106585)
(9.74377e-06 9.77289e-06 0.106791)
(5.82792e-05 9.36995e-05 0.107769)
(-5.82776e-05 9.37695e-05 0.107769)
(5.73894e-05 9.22207e-05 0.107918)
(-5.74401e-05 9.23384e-05 0.107918)
(-0.00014951 0.000149456 0.106585)
(-9.67624e-06 9.70615e-06 0.106792)
(9.37266e-05 5.82038e-05 0.10777)
(9.3751e-05 -5.83064e-05 0.107769)
(9.22766e-05 5.73505e-05 0.107919)
(9.22958e-05 -5.74593e-05 0.107918)
(-9.36781e-05 -5.81443e-05 0.10777)
(-9.21869e-05 5.72242e-05 0.107919)
(-9.22276e-05 -5.72928e-05 0.107918)
(0.000149453 -0.00014959 0.106585)
(9.72984e-06 -9.73846e-06 0.106791)
(-5.80259e-05 -9.3563e-05 0.10777)
(5.72207e-05 -9.22968e-05 0.107919)
(-5.7165e-05 -9.21275e-05 0.107919)
(-9.67704e-06 -9.66372e-06 0.106791)
(0.000146215 0.000146135 0.106634)
(6.93207e-06 7.05985e-06 0.10683)
(5.70776e-05 9.17294e-05 0.107965)
(-5.7134e-05 9.18563e-05 0.107965)
(5.61982e-05 9.01735e-05 0.1081)
(-5.62451e-05 9.0319e-05 0.1081)
(-0.000146159 0.00014613 0.106635)
(-6.92972e-06 6.9367e-06 0.106831)
(9.17982e-05 5.70455e-05 0.107966)
(9.18133e-05 -5.71516e-05 0.107965)
(9.02543e-05 5.61323e-05 0.108101)
(9.02743e-05 -5.62397e-05 0.1081)
(-9.17388e-05 -5.6993e-05 0.107966)
(-9.01488e-05 5.60215e-05 0.108101)
(-9.01989e-05 -5.60782e-05 0.108101)
(0.000146102 -0.000146272 0.106634)
(6.98898e-06 -6.93121e-06 0.10683)
(-5.68617e-05 -9.16355e-05 0.107966)
(5.60231e-05 -9.02694e-05 0.108101)
(-5.59624e-05 -9.00868e-05 0.108101)
(-6.92593e-06 -6.90661e-06 0.10683)
(0.000142313 0.000142277 0.106658)
(4.28432e-06 4.40534e-06 0.106843)
(5.59051e-05 8.96326e-05 0.108143)
(-5.59543e-05 8.97829e-05 0.108143)
(5.49991e-05 8.79151e-05 0.108264)
(-5.50435e-05 8.80794e-05 0.108264)
(-0.000142269 0.000142218 0.106658)
(-4.31672e-06 4.32831e-06 0.106844)
(8.97264e-05 5.58263e-05 0.108144)
(8.97408e-05 -5.59413e-05 0.108143)
(8.80207e-05 5.49173e-05 0.108265)
(8.8044e-05 -5.50262e-05 0.108264)
(-8.96655e-05 -5.57961e-05 0.108143)
(-8.79179e-05 5.48316e-05 0.108265)
(-8.79637e-05 -5.48834e-05 0.108264)
(0.000142233 -0.000142361 0.106658)
(4.35814e-06 -4.25693e-06 0.106843)
(-5.56743e-05 -8.95301e-05 0.108144)
(5.48125e-05 -8.80141e-05 0.108265)
(-5.47652e-05 -8.78567e-05 0.108265)
(-4.2881e-06 -4.28343e-06 0.106842)
(0.000138029 0.000137957 0.106656)
(1.72128e-06 1.88393e-06 0.106832)
(5.46875e-05 8.73392e-05 0.108302)
(-5.47325e-05 8.75091e-05 0.108302)
(5.37583e-05 8.55545e-05 0.108409)
(-5.37884e-05 8.57323e-05 0.108409)
(-0.000137993 0.000137953 0.106657)
(-1.75919e-06 1.77391e-06 0.106832)
(8.74525e-05 5.45918e-05 0.108303)
(8.74727e-05 -5.47099e-05 0.108302)
(8.56784e-05 5.36208e-05 0.10841)
(8.57055e-05 -5.37602e-05 0.108409)
(-8.73967e-05 -5.45796e-05 0.108302)
(-8.55746e-05 5.35852e-05 0.10841)
(-8.56258e-05 -5.36192e-05 0.108409)
(0.000137974 -0.00013808 0.106657)
(1.83265e-06 -1.65908e-06 0.106831)
(-5.44588e-05 -8.72981e-05 0.108303)
(5.354e-05 -8.56544e-05 0.10841)
(-5.35049e-05 -8.55374e-05 0.10841)
(-1.74633e-06 -1.72965e-06 0.106831)
(0.000133386 0.000133346 0.106633)
(-7.31676e-07 -6.2513e-07 0.106798)
(5.34465e-05 8.49478e-05 0.108443)
(-5.34666e-05 8.51226e-05 0.108442)
(5.24839e-05 8.30298e-05 0.108536)
(-5.24828e-05 8.32216e-05 0.108535)
(-0.000133367 0.000133336 0.106633)
(6.90213e-07 -6.78211e-07 0.106799)
(8.50754e-05 5.32929e-05 0.108443)
(8.5097e-05 -5.34403e-05 0.108442)
(8.31637e-05 5.23078e-05 0.108536)
(8.31895e-05 -5.24556e-05 0.108535)
(-8.50126e-05 -5.33049e-05 0.108443)
(-8.30667e-05 5.22889e-05 0.108537)
(-8.30992e-05 -5.23315e-05 0.108536)
(0.000133335 -0.000133381 0.106633)
(-6.48361e-07 8.19871e-07 0.106798)
(-5.31935e-05 -8.49315e-05 0.108443)
(5.2236e-05 -8.31206e-05 0.108536)
(-5.22228e-05 -8.30536e-05 0.108536)
(7.62853e-07 7.8935e-07 0.106797)
(0.000128558 0.000128484 0.10659)
(-3.1927e-06 -3.12072e-06 0.106746)
(5.21429e-05 8.23809e-05 0.108564)
(-5.21459e-05 8.25748e-05 0.108564)
(5.10993e-05 8.03915e-05 0.108643)
(-5.10837e-05 8.05831e-05 0.108643)
(-0.000128508 0.000128483 0.10659)
(3.21677e-06 -3.1851e-06 0.106746)
(8.25229e-05 5.19632e-05 0.108565)
(8.25406e-05 -5.21092e-05 0.108564)
(8.05271e-05 5.09173e-05 0.108644)
(8.05508e-05 -5.10589e-05 0.108643)
(-8.24567e-05 -5.19934e-05 0.108564)
(-8.0438e-05 5.09086e-05 0.108645)
(-8.046e-05 -5.09414e-05 0.108643)
(0.000128487 -0.00012853 0.10659)
(-3.14293e-06 3.29708e-06 0.106745)
(-5.18845e-05 -8.24152e-05 0.108565)
(5.08499e-05 -8.0484e-05 0.108644)
(-5.08386e-05 -8.04345e-05 0.108644)
(3.24585e-06 3.25423e-06 0.106745)
(0.000123489 0.000123397 0.106529)
(-5.69039e-06 -5.61582e-06 0.106678)
(5.07417e-05 7.97096e-05 0.108667)
(-5.07213e-05 7.98997e-05 0.108667)
(4.95989e-05 7.75907e-05 0.108733)
(-4.95727e-05 7.77857e-05 0.108732)
(-0.00012342 0.000123409 0.106529)
(5.72729e-06 -5.66125e-06 0.106678)
(7.98487e-05 5.05527e-05 0.108668)
(7.98682e-05 -5.06936e-05 0.108667)
(7.77329e-05 4.94163e-05 0.108734)
(7.77551e-05 -4.95525e-05 0.108732)
(-7.97786e-05 -5.05776e-05 0.108667)
(-7.76395e-05 4.94121e-05 0.108734)
(-7.76549e-05 -4.94424e-05 0.108733)
(0.000123408 -0.000123454 0.106529)
(-5.69363e-06 5.81627e-06 0.106677)
(-5.04753e-05 -7.9755e-05 0.108668)
(4.93603e-05 -7.7686e-05 0.108734)
(-4.93366e-05 -7.76508e-05 0.108733)
(5.72571e-06 5.74795e-06 0.106677)
(0.00011828 0.000118201 0.106454)
(-8.26734e-06 -8.21112e-06 0.106596)
(4.91898e-05 7.68729e-05 0.108752)
(-4.9161e-05 7.70665e-05 0.108752)
(4.79256e-05 7.46705e-05 0.108804)
(-4.78919e-05 7.48427e-05 0.108804)
(-0.000118214 0.000118224 0.106455)
(8.27685e-06 -8.21531e-06 0.106597)
(7.7014e-05 4.90025e-05 0.108753)
(7.70413e-05 -4.91497e-05 0.108752)
(7.48058e-05 4.77423e-05 0.108805)
(7.48246e-05 -4.78772e-05 0.108804)
(-7.693e-05 -4.90572e-05 0.108752)
(-7.47046e-05 4.77418e-05 0.108806)
(-7.47039e-05 -4.77755e-05 0.108804)
(0.000118198 -0.000118245 0.106455)
(-8.21908e-06 8.33383e-06 0.106596)
(-4.89365e-05 -7.69333e-05 0.108753)
(4.76971e-05 -7.47435e-05 0.108805)
(-4.76558e-05 -7.47197e-05 0.108805)
(8.28822e-06 8.2949e-06 0.106596)
(0.000112975 0.000112895 0.106369)
(-1.07553e-05 -1.07177e-05 0.106505)
(4.74937e-05 7.39251e-05 0.10882)
(-4.74481e-05 7.40873e-05 0.10882)
(4.61347e-05 7.16178e-05 0.108859)
(-4.60918e-05 7.17833e-05 0.108859)
(-0.000112898 0.000112913 0.106369)
(1.08197e-05 -1.0745e-05 0.106506)
(7.4059e-05 4.7313e-05 0.108821)
(7.40745e-05 -4.74339e-05 0.108819)
(7.17407e-05 4.5969e-05 0.10886)
(7.17646e-05 -4.60931e-05 0.108859)
(-7.39502e-05 -4.73468e-05 0.10882)
(-7.16442e-05 4.59656e-05 0.108861)
(-7.1654e-05 -4.59955e-05 0.108859)
(0.0001129 -0.000112957 0.106369)
(-1.07487e-05 1.08668e-05 0.106505)
(-4.72159e-05 -7.39679e-05 0.10882)
(4.59278e-05 -7.1682e-05 0.10886)
(-4.58822e-05 -7.16662e-05 0.10886)
(1.08391e-05 1.08403e-05 0.106505)
(0.000107666 0.000107579 0.106275)
(-1.3269e-05 -1.32043e-05 0.106408)
(4.56687e-05 7.08398e-05 0.10887)
(-4.56331e-05 7.10079e-05 0.10887)
(4.42434e-05 6.84727e-05 0.108898)