/*--------------------------------*- C++ -*----------------------------------*\
| =========                 |                                                 |
| \\      /  F ield         | OpenFOAM: The Open Source CFD Toolbox           |
|  \\    /   O peration     | Version:  v2012                                 |
|   \\  /    A nd           | Website:  www.openfoam.com                      |
|    \\/     M anipulation  |                                                 |
\*---------------------------------------------------------------------------*/
FoamFile
{
    version     2.0;
    format      ascii;
    class       volScalarField;
    location    "400";
    object      k;
}
// * * * * * * * * * * * * * * * * * * * * * * * * * * * * * * * * * * * * * //

dimensions      [0 2 -2 0 0 0 0];


internalField   nonuniform List<scalar> 
171728
(
2.10375e-05
3.66891e-05
4.1931e-05
3.6691e-05
3.66888e-05
3.66906e-05
4.19346e-05
7.13613e-05
7.13668e-05
6.47327e-05
2.10385e-05
6.95335e-05
6.02135e-05
6.95335e-05
6.95358e-05
6.69225e-05
6.69321e-05
6.02144e-05
6.02192e-05
2.90774e-05
5.33382e-05
7.13613e-05
6.47304e-05
2.90781e-05
6.02164e-05
5.33367e-05
6.69266e-05
6.69217e-05
6.95333e-05
7.13619e-05
7.13745e-05
7.73975e-05
7.01958e-05
7.02124e-05
7.13799e-05
7.74179e-05
7.74358e-05
7.01984e-05
7.0155e-05
6.47706e-05
6.82268e-05
6.98508e-05
6.82578e-05
6.98636e-05
7.0145e-05
6.95463e-05
6.9546e-05
6.95483e-05
7.01207e-05
5.93699e-05
6.69399e-05
7.11444e-05
7.11594e-05
5.94222e-05
7.00998e-05
7.0172e-05
5.93796e-05
6.69502e-05
7.11547e-05
7.11696e-05
5.94315e-05
7.01492e-05
9.23837e-05
7.20347e-05
7.20283e-05
7.20486e-05
7.20422e-05
9.23748e-05
7.02097e-05
7.13744e-05
7.7396e-05
7.74145e-05
7.0195e-05
7.01533e-05
6.47683e-05
6.985e-05
6.82172e-05
6.98628e-05
6.82526e-05
7.01421e-05
7.01701e-05
5.93782e-05
6.69414e-05
7.11521e-05
7.11672e-05
5.9426e-05
7.01488e-05
7.01209e-05
5.93701e-05
6.69393e-05
7.1142e-05
5.94218e-05
7.11602e-05
7.00997e-05
9.23879e-05
7.20279e-05
7.20342e-05
7.20419e-05
7.20482e-05
9.2376e-05
6.95458e-05
7.13751e-05
1.50345e-05
5.96558e-05
5.06078e-05
5.06115e-05
4.19681e-05
5.06516e-05
5.06563e-05
5.96228e-05
5.96549e-05
5.06081e-05
5.06115e-05
4.19661e-05
5.06508e-05
5.06544e-05
5.9621e-05
1.50371e-05
4.82371e-05
5.26104e-05
6.02619e-05
5.85469e-05
5.26491e-05
5.86057e-05
4.81997e-05
4.82254e-05
5.26147e-05
6.02612e-05
5.85481e-05
5.86061e-05
5.26453e-05
4.82118e-05
4.82452e-05
5.26141e-05
6.02664e-05
5.85557e-05
5.86142e-05
5.26565e-05
4.82068e-05
4.58963e-05
5.34175e-05
5.56427e-05
4.39306e-05
5.57158e-05
4.39787e-05
4.58653e-05
4.82398e-05
5.26106e-05
6.02587e-05
5.85465e-05
5.86045e-05
5.26523e-05
4.82026e-05
4.58933e-05
5.34155e-05
4.39299e-05
5.56376e-05
4.39779e-05
5.57102e-05
4.58687e-05
3.58933e-05
3.58914e-05
3.58914e-05
3.59958e-05
3.39293e-05
3.38874e-05
3.38876e-05
3.39585e-05
3.2157e-05
3.20043e-05
3.20041e-05
3.19438e-05
3.05331e-05
3.02236e-05
3.0223e-05
2.99795e-05
2.90304e-05
2.85466e-05
2.85458e-05
2.81103e-05
2.7632e-05
2.69784e-05
2.69759e-05
2.63703e-05
2.63265e-05
2.55211e-05
2.55178e-05
2.47868e-05
2.51062e-05
2.41741e-05
2.41714e-05
2.33609e-05
2.39653e-05
2.29389e-05
2.29368e-05
2.20887e-05
2.28996e-05
2.18141e-05
2.18125e-05
2.097e-05
2.19053e-05
2.07974e-05
2.0796e-05
1.99968e-05
2.09791e-05
1.98859e-05
1.98847e-05
1.91638e-05
2.01162e-05
1.90777e-05
1.90766e-05
1.84696e-05
1.93152e-05
1.83694e-05
1.83684e-05
1.79093e-05
1.85752e-05
1.77578e-05
1.7757e-05
1.74779e-05
1.78937e-05
1.72413e-05
1.72408e-05
1.71661e-05
1.72683e-05
1.6819e-05
1.68188e-05
1.69859e-05
1.66968e-05
1.64901e-05
1.64902e-05
1.69372e-05
1.61781e-05
1.62547e-05
1.62548e-05
1.70302e-05
1.57096e-05
1.61125e-05
1.61127e-05
1.72496e-05
1.52897e-05
1.60633e-05
1.60635e-05
1.75999e-05
1.49178e-05
1.61048e-05
1.61052e-05
1.8078e-05
1.45927e-05
1.6238e-05
1.62384e-05
1.86716e-05
1.43139e-05
1.64607e-05
1.6461e-05
1.937e-05
1.4081e-05
1.67701e-05
1.67706e-05
2.01654e-05
1.38935e-05
1.71634e-05
1.71639e-05
2.10357e-05
1.37512e-05
1.76372e-05
1.76381e-05
2.19758e-05
1.36538e-05
1.81873e-05
1.81888e-05
2.29693e-05
1.36016e-05
1.88091e-05
1.88112e-05
2.4002e-05
1.3595e-05
1.9498e-05
1.95004e-05
2.50874e-05
1.36328e-05
2.02485e-05
2.0251e-05
2.61668e-05
1.37165e-05
2.10547e-05
2.10575e-05
2.72269e-05
1.38461e-05
2.19106e-05
2.19136e-05
2.83068e-05
1.40218e-05
2.28099e-05
2.2813e-05
2.93526e-05
1.42438e-05
2.3746e-05
2.37488e-05
3.03933e-05
1.45121e-05
2.47129e-05
2.47148e-05
3.14273e-05
1.48266e-05
2.57038e-05
2.5705e-05
3.24202e-05
1.5187e-05
2.67124e-05
2.67133e-05
3.34057e-05
1.55928e-05
2.77333e-05
2.77337e-05
3.43643e-05
1.60431e-05
2.87599e-05
2.87604e-05
3.53177e-05
1.65366e-05
2.97879e-05
2.97884e-05
3.62139e-05
1.70721e-05
3.0813e-05
3.08139e-05
3.71027e-05
1.76475e-05
3.18313e-05
3.18323e-05
3.79781e-05
1.82609e-05
3.2838e-05
3.28395e-05
3.88187e-05
1.89096e-05
3.383e-05
3.38318e-05
3.9637e-05
1.95908e-05
3.48038e-05
3.48055e-05
4.04202e-05
2.03012e-05
3.57571e-05
3.57586e-05
4.11898e-05
3.63062e-05
3.62907e-05
3.62907e-05
3.63062e-05
3.62907e-05
3.62907e-05
3.6423e-05
3.6423e-05
3.6423e-05
3.6423e-05
3.62907e-05
3.62907e-05
3.63062e-05
3.62907e-05
3.62907e-05
3.63062e-05
3.59958e-05
3.42673e-05
3.58914e-05
3.58914e-05
3.43756e-05
3.43754e-05
3.59958e-05
3.42668e-05
3.58914e-05
3.58914e-05
3.43756e-05
3.43756e-05
3.58914e-05
3.43756e-05
3.43756e-05
3.59959e-05
3.42668e-05
3.58914e-05
3.43757e-05
3.43752e-05
3.4266e-05
3.39606e-05
3.22584e-05
3.38876e-05
3.38872e-05
3.24657e-05
3.24649e-05
3.39598e-05
3.22576e-05
3.38876e-05
3.38875e-05
3.24656e-05
3.24652e-05
3.38875e-05
3.24652e-05
3.24652e-05
3.39597e-05
3.22576e-05
3.38865e-05
3.24652e-05
3.24631e-05
3.22552e-05
3.19467e-05
3.02909e-05
3.20047e-05
3.20038e-05
3.06594e-05
3.06582e-05
3.19459e-05
3.02906e-05
3.20046e-05
3.20044e-05
3.06594e-05
3.06589e-05
3.20042e-05
3.06593e-05
3.0659e-05
3.19461e-05
3.02908e-05
3.20024e-05
3.06587e-05
3.06581e-05
3.02906e-05
2.99797e-05
2.84144e-05
3.02234e-05
3.02223e-05
2.89552e-05
2.89542e-05
2.99795e-05
2.84147e-05
3.02236e-05
3.02227e-05
2.89555e-05
2.89528e-05
3.02231e-05
2.89558e-05
2.8955e-05
2.99797e-05
2.84136e-05
3.02225e-05
2.89552e-05
2.89548e-05
2.84136e-05
2.81117e-05
2.66617e-05
2.85459e-05
2.85449e-05
2.73592e-05
2.73582e-05
2.81119e-05
2.6662e-05
2.85462e-05
2.8543e-05
2.73593e-05
2.73551e-05
2.85456e-05
2.736e-05
2.73581e-05
2.81105e-05
2.66575e-05
2.85453e-05
2.7358e-05
2.7356e-05
2.66545e-05
2.63793e-05
2.50528e-05
2.69775e-05
2.69765e-05
2.58742e-05
2.5873e-05
2.63792e-05
2.50535e-05
2.69776e-05
2.69732e-05
2.58742e-05
2.587e-05
2.69761e-05
2.58751e-05
2.58719e-05
2.63741e-05
2.50502e-05
2.69732e-05
2.58718e-05
2.58679e-05
2.50464e-05
2.47957e-05
2.3598e-05
2.55202e-05
2.5519e-05
2.44994e-05
2.44983e-05
2.47955e-05
2.36003e-05
2.55202e-05
2.55161e-05
2.44996e-05
2.44955e-05
2.55178e-05
2.45004e-05
2.44971e-05
2.47904e-05
2.35975e-05
2.55138e-05
2.44975e-05
2.4494e-05
2.35967e-05
2.33667e-05
2.22995e-05
2.41731e-05
2.41721e-05
2.32362e-05
2.32352e-05
2.33648e-05
2.22999e-05
2.41734e-05
2.41692e-05
2.32364e-05
2.32321e-05
2.41709e-05
2.32372e-05
2.32342e-05
2.3362e-05
2.22973e-05
2.41682e-05
2.3235e-05
2.32326e-05
2.22965e-05
2.20907e-05
2.11543e-05
2.29379e-05
2.29369e-05
2.20842e-05
2.2083e-05
2.20907e-05
2.11544e-05
2.29381e-05
2.29337e-05
2.20843e-05
2.20795e-05
2.2936e-05
2.20851e-05
2.20824e-05
2.2088e-05
2.11514e-05
2.29347e-05
2.20833e-05
2.20819e-05
2.11524e-05
2.09712e-05
2.01558e-05
2.18133e-05
2.18121e-05
2.10409e-05
2.10395e-05
2.09715e-05
2.01555e-05
2.18134e-05
2.18085e-05
2.10411e-05
2.10357e-05
2.18115e-05
2.10416e-05
2.10393e-05
2.09687e-05
2.01527e-05
2.18113e-05
2.10401e-05
2.10395e-05
2.01545e-05
1.9998e-05
1.92978e-05
2.07968e-05
2.07954e-05
2.01036e-05
2.01021e-05
1.99978e-05
1.92977e-05
2.0797e-05
2.07915e-05
2.01038e-05
2.00983e-05
2.07953e-05
2.01041e-05
2.01021e-05
1.9995e-05
1.9295e-05
2.07956e-05
2.01028e-05
2.01027e-05
1.92965e-05
1.9165e-05
1.85708e-05
1.98855e-05
1.9884e-05
1.92696e-05
1.92682e-05
1.91644e-05
1.85707e-05
1.98856e-05
1.98803e-05
1.92698e-05
1.9265e-05
1.9884e-05
1.927e-05
1.92683e-05
1.91622e-05
1.85686e-05
1.98847e-05
1.92689e-05
1.92691e-05
1.85698e-05
1.84707e-05
1.79744e-05
1.90772e-05
1.90758e-05
1.85367e-05
1.85353e-05
1.84704e-05
1.79743e-05
1.90774e-05
1.90729e-05
1.85369e-05
1.85329e-05
1.90759e-05
1.85371e-05
1.85354e-05
1.84685e-05
1.79728e-05
1.90768e-05
1.85361e-05
1.85363e-05
1.79735e-05
1.79103e-05
1.75117e-05
1.8369e-05
1.83676e-05
1.79013e-05
1.79e-05
1.791e-05
1.75114e-05
1.83692e-05
1.83654e-05
1.79014e-05
1.78982e-05
1.83677e-05
1.79016e-05
1.79e-05
1.79087e-05
1.75104e-05
1.83687e-05
1.79007e-05
1.7901e-05
1.75108e-05
1.7479e-05
1.7187e-05
1.77575e-05
1.77563e-05
1.73611e-05
1.73599e-05
1.74786e-05
1.71847e-05
1.77577e-05
1.77546e-05
1.73612e-05
1.73586e-05
1.77564e-05
1.73613e-05
1.73599e-05
1.74777e-05
1.71846e-05
1.77573e-05
1.73606e-05
1.73609e-05
1.71846e-05
1.71665e-05
1.69866e-05
1.72411e-05
1.724e-05
1.69154e-05
1.69143e-05
1.71686e-05
1.69844e-05
1.72412e-05
1.72389e-05
1.69154e-05
1.69135e-05
1.72401e-05
1.69153e-05
1.69142e-05
1.71679e-05
1.69846e-05
1.7241e-05
1.69149e-05
1.69152e-05
1.69855e-05
1.69871e-05
1.69297e-05
1.68191e-05
1.68181e-05
1.6563e-05
1.65621e-05
1.69849e-05
1.69282e-05
1.68191e-05
1.68173e-05
1.6563e-05
1.65616e-05
1.6818e-05
1.65627e-05
1.65619e-05
1.69856e-05
1.69288e-05
1.6819e-05
1.65627e-05
1.65628e-05
1.69283e-05
1.69387e-05
1.69963e-05
1.64903e-05
1.64895e-05
1.63041e-05
1.63032e-05
1.69375e-05
1.69938e-05
1.64904e-05
1.64892e-05
1.6304e-05
1.63031e-05
1.64893e-05
1.63036e-05
1.63029e-05
1.69381e-05
1.69946e-05
1.64903e-05
1.63037e-05
1.63039e-05
1.69959e-05
1.70319e-05
1.71916e-05
1.6255e-05
1.62543e-05
1.61384e-05
1.61377e-05
1.70316e-05
1.71883e-05
1.6255e-05
1.62542e-05
1.61384e-05
1.61378e-05
1.6254e-05
1.61378e-05
1.61373e-05
1.70321e-05
1.71862e-05
1.6255e-05
1.61379e-05
1.61382e-05
1.71968e-05
1.72559e-05
1.75141e-05
1.61131e-05
1.61125e-05
1.60657e-05
1.60652e-05
1.72531e-05
1.75117e-05
1.6113e-05
1.61126e-05
1.60656e-05
1.60654e-05
1.61121e-05
1.6065e-05
1.60647e-05
1.72584e-05
1.75121e-05
1.6113e-05
1.60652e-05
1.60656e-05
1.75266e-05
1.76096e-05
1.79669e-05
1.6064e-05
1.60637e-05
1.60864e-05
1.60861e-05
1.76086e-05
1.79654e-05
1.60639e-05
1.60638e-05
1.60862e-05
1.60861e-05
1.60631e-05
1.60855e-05
1.60855e-05
1.76093e-05
1.79658e-05
1.6064e-05
1.60858e-05
1.60862e-05
1.79826e-05
1.80889e-05
1.85374e-05
1.61057e-05
1.61055e-05
1.61973e-05
1.61971e-05
1.80857e-05
1.85369e-05
1.61055e-05
1.61056e-05
1.6197e-05
1.61971e-05
1.6105e-05
1.61961e-05
1.61965e-05
1.80879e-05
1.85365e-05
1.61058e-05
1.61965e-05
1.61972e-05
1.8558e-05
1.86832e-05
1.92142e-05
1.62391e-05
1.6239e-05
1.63979e-05
1.63977e-05
1.86739e-05
1.92312e-05
1.62388e-05
1.62391e-05
1.63975e-05
1.63979e-05
1.62386e-05
1.63967e-05
1.63974e-05
1.86829e-05
1.92328e-05
1.62393e-05
1.6397e-05
1.63979e-05
1.92376e-05
1.93832e-05
2.00058e-05
1.64618e-05
1.64619e-05
1.6686e-05
1.66862e-05
1.93632e-05
2.00071e-05
1.64615e-05
1.6462e-05
1.66855e-05
1.66862e-05
1.64616e-05
1.66848e-05
1.6686e-05
1.93648e-05
2.00082e-05
1.64623e-05
1.66851e-05
1.66864e-05
2.00111e-05
2.0154e-05
2.08628e-05
1.67713e-05
1.67717e-05
1.70587e-05
1.70593e-05
2.01536e-05
2.08648e-05
1.67709e-05
1.67718e-05
1.70583e-05
1.70591e-05
1.67716e-05
1.70575e-05
1.70593e-05
2.01552e-05
2.08632e-05
1.67721e-05
1.70577e-05
1.70596e-05
2.08742e-05
2.10248e-05
2.17929e-05
1.71647e-05
1.71655e-05
1.7513e-05
1.75137e-05
2.10253e-05
2.17601e-05
1.71644e-05
1.71654e-05
1.75125e-05
1.75136e-05
1.71658e-05
1.75115e-05
1.75142e-05
2.1025e-05
2.17923e-05
1.71661e-05
1.7512e-05
1.75141e-05
2.18023e-05
2.19651e-05
2.27766e-05
1.76389e-05
1.76397e-05
1.80449e-05
1.80454e-05
2.19878e-05
2.27745e-05
1.76385e-05
1.76397e-05
1.80444e-05
1.80456e-05
1.76405e-05
1.80429e-05
1.80465e-05
2.19653e-05
2.27437e-05
1.76404e-05
1.80441e-05
1.80461e-05
2.2787e-05
2.29595e-05
2.37955e-05
1.81895e-05
1.81901e-05
1.86502e-05
1.86501e-05
2.29568e-05
2.37997e-05
1.81889e-05
1.81904e-05
1.86492e-05
1.86504e-05
1.81914e-05
1.86473e-05
1.86516e-05
2.29812e-05
2.37694e-05
1.81909e-05
1.8649e-05
1.86509e-05
2.38106e-05
2.4003e-05
2.48217e-05
1.88123e-05
1.88124e-05
1.93235e-05
1.93234e-05
2.39891e-05
2.48562e-05
1.88113e-05
1.88128e-05
1.93222e-05
1.93234e-05
1.8814e-05
1.93199e-05
1.9325e-05
2.40217e-05
2.48205e-05
1.88133e-05
1.93222e-05
1.9324e-05
2.48266e-05
2.50856e-05
2.58849e-05
1.9502e-05
1.95018e-05
2.00598e-05
2.00595e-05
2.50513e-05
2.59229e-05
1.95007e-05
1.95021e-05
2.00582e-05
2.00593e-05
1.95036e-05
2.00556e-05
2.00609e-05
2.5084e-05
2.58817e-05
1.95027e-05
2.00579e-05
2.006e-05
2.58861e-05
2.61669e-05
2.69652e-05
2.0253e-05
2.02527e-05
2.08528e-05
2.08528e-05
2.6141e-05
2.69966e-05
2.02515e-05
2.02528e-05
2.08512e-05
2.08524e-05
2.02546e-05
2.08484e-05
2.08543e-05
2.6165e-05
2.69623e-05
2.02535e-05
2.08509e-05
2.08532e-05
2.69712e-05
2.72202e-05
2.80223e-05
2.10592e-05
2.10596e-05
2.16968e-05
2.16971e-05
2.71984e-05
2.80579e-05
2.10576e-05
2.10594e-05
2.1695e-05
2.16967e-05
2.10612e-05
2.16925e-05
2.16988e-05
2.72204e-05
2.80596e-05
2.106e-05
2.16953e-05
2.16975e-05
2.80285e-05
2.82882e-05
2.9103e-05
2.19151e-05
2.19157e-05
2.25859e-05
2.25862e-05
2.82709e-05
2.90889e-05
2.19134e-05
2.19156e-05
2.25845e-05
2.2586e-05
2.19175e-05
2.25816e-05
2.25883e-05
2.82665e-05
2.91148e-05
2.19162e-05
2.25844e-05
2.25867e-05
2.90906e-05
2.93516e-05
3.01662e-05
2.28142e-05
2.2815e-05
2.35131e-05
2.3514e-05
2.93462e-05
3.01488e-05
2.28131e-05
2.2815e-05
2.35119e-05
2.35136e-05
2.28172e-05
2.35091e-05
2.35161e-05
2.93219e-05
3.01542e-05
2.28154e-05
2.35118e-05
2.35138e-05
3.01332e-05
3.03734e-05
3.11825e-05
2.375e-05
2.37513e-05
2.44724e-05
2.44736e-05
3.03904e-05
3.1162e-05
2.37491e-05
2.37509e-05
2.44711e-05
2.44725e-05
2.37535e-05
2.44688e-05
2.44754e-05
3.03702e-05
3.11891e-05
2.37512e-05
2.44709e-05
2.4473e-05
3.11577e-05
3.13877e-05
3.21634e-05
2.47164e-05
2.47182e-05
2.54573e-05
2.54592e-05
3.14296e-05
3.2162e-05
2.47155e-05
2.47168e-05
2.54562e-05
2.5457e-05
2.47198e-05
2.54542e-05
2.54603e-05
3.13926e-05
3.21963e-05
2.47174e-05
2.54555e-05
2.54577e-05
3.2165e-05
3.24161e-05
3.3166e-05
2.57067e-05
2.57092e-05
2.64622e-05
2.64637e-05
3.24346e-05
3.31812e-05
2.57058e-05
2.57068e-05
2.6461e-05
2.64613e-05
2.57101e-05
2.64588e-05
2.64651e-05
3.23994e-05
3.31761e-05
2.57075e-05
2.646e-05
2.64622e-05
3.31584e-05
3.34127e-05
3.41237e-05
2.67157e-05
2.67176e-05
2.74802e-05
2.74818e-05
3.33808e-05
3.41485e-05
2.67146e-05
2.6715e-05
2.74789e-05
2.74793e-05
2.67189e-05
2.74773e-05
2.74832e-05
3.33818e-05
3.41417e-05
2.67161e-05
2.74779e-05
2.74802e-05
3.413e-05
3.4375e-05
3.50751e-05
2.77362e-05
2.77381e-05
2.85062e-05
2.85072e-05
3.43443e-05
3.50869e-05
2.7735e-05
2.77354e-05
2.85046e-05
2.8505e-05
2.77393e-05
2.85032e-05
2.85089e-05
3.43459e-05
3.50846e-05
2.77363e-05
2.85035e-05
2.85058e-05
3.50683e-05
3.53157e-05
3.5988e-05
2.87634e-05
2.87643e-05
2.95344e-05
2.95349e-05
3.52853e-05
3.60121e-05
2.8762e-05
2.87621e-05
2.95326e-05
2.9533e-05
2.8766e-05
2.95312e-05
2.95367e-05
3.52839e-05
3.60093e-05
2.87631e-05
2.95315e-05
2.95338e-05
3.59936e-05
3.62186e-05
3.68938e-05
2.97914e-05
2.97918e-05
3.0561e-05
3.05607e-05
3.6199e-05
3.6878e-05
2.97899e-05
2.97903e-05
3.05591e-05
3.05596e-05
2.97938e-05
3.05573e-05
3.05631e-05
3.62103e-05
3.69115e-05
2.97909e-05
3.05581e-05
3.05602e-05
3.68837e-05
3.71045e-05
3.77824e-05
3.0817e-05
3.08167e-05
3.15816e-05
3.15809e-05
3.71047e-05
3.77555e-05
3.08151e-05
3.08158e-05
3.15793e-05
3.15803e-05
3.08191e-05
3.15778e-05
3.15837e-05
3.70912e-05
3.77782e-05
3.08161e-05
3.15787e-05
3.15807e-05
3.7757e-05
3.79718e-05
3.86162e-05
3.18353e-05
3.18346e-05
3.25917e-05
3.25905e-05
3.79826e-05
3.86063e-05
3.18331e-05
3.18342e-05
3.25893e-05
3.25907e-05
3.18376e-05
3.25876e-05
3.25942e-05
3.7955e-05
3.86219e-05
3.18346e-05
3.25891e-05
3.25912e-05
3.86145e-05
3.88202e-05
3.9432e-05
3.28422e-05
3.2841e-05
3.35877e-05
3.35863e-05
3.88127e-05
3.94294e-05
3.28399e-05
3.28414e-05
3.35851e-05
3.3587e-05
3.28449e-05
3.35836e-05
3.35907e-05
3.88207e-05
3.94347e-05
3.28419e-05
3.35853e-05
3.35879e-05
3.94475e-05
3.9641e-05
4.02316e-05
3.38341e-05
3.38328e-05
3.45663e-05
3.45647e-05
3.96262e-05
4.0247e-05
3.38318e-05
3.38337e-05
3.45637e-05
3.45656e-05
3.38372e-05
3.45622e-05
3.45695e-05
3.96443e-05
4.02333e-05
3.38344e-05
3.4564e-05
3.45669e-05
4.02592e-05
4.04407e-05
4.10169e-05
3.48078e-05
3.48064e-05
3.55245e-05
3.55229e-05
4.04097e-05
4.10224e-05
3.48055e-05
3.48074e-05
3.55219e-05
3.55241e-05
3.48114e-05
3.55208e-05
3.55284e-05
4.04196e-05
4.10247e-05
3.48089e-05
3.55225e-05
3.55259e-05
4.10324e-05
4.11889e-05
4.17796e-05
3.57607e-05
3.57592e-05
3.64606e-05
3.64592e-05
4.11856e-05
4.17821e-05
3.57583e-05
3.57604e-05
3.64582e-05
3.64602e-05
3.57649e-05
3.64575e-05
3.64648e-05
4.11887e-05
4.17842e-05
3.57626e-05
3.64588e-05
3.64626e-05
4.17875e-05
3.73774e-05
3.73766e-05
3.7377e-05
3.7377e-05
3.73702e-05
3.73777e-05
3.73041e-05
3.73768e-05
3.73702e-05
3.73777e-05
3.73769e-05
3.73044e-05
3.73741e-05
3.7297e-05
3.72964e-05
3.5868e-05
4.06563e-05
3.65959e-05
4.50577e-05
5.51468e-05
6.51131e-05
3.58628e-05
4.06701e-05
3.6593e-05
4.50625e-05
3.58933e-05
3.58933e-05
3.58933e-05
3.44002e-05
3.44001e-05
3.44002e-05
3.44002e-05
3.52712e-05
3.56066e-05
3.58931e-05
3.53767e-05
3.60487e-05
3.41817e-05
3.53821e-05
5.55373e-05
6.50123e-05
3.52714e-05
3.58931e-05
3.56076e-05
3.53767e-05
3.60489e-05
3.53821e-05
3.41825e-05
3.65919e-05
3.66265e-05
3.52789e-05
3.40448e-05
3.40206e-05
3.39438e-05
5.12961e-05
3.46742e-05
5.46053e-05
7.6668e-05
8.0951e-05
3.39371e-05
5.12987e-05
3.46654e-05
5.46114e-05
3.39293e-05
3.39293e-05
3.39293e-05
3.25848e-05
3.25847e-05
3.25847e-05
3.25846e-05
3.30422e-05
3.2426e-05
3.39291e-05
3.34065e-05
3.38899e-05
3.15173e-05
3.34672e-05
7.66523e-05
8.09404e-05
3.30416e-05
3.39292e-05
3.24343e-05
3.34068e-05
3.38903e-05
3.34673e-05
3.1525e-05
3.16856e-05
3.14772e-05
3.32566e-05
3.08718e-05
3.06377e-05
3.22257e-05
5.91583e-05
3.29108e-05
6.14565e-05
8.44148e-05
8.50761e-05
3.22276e-05
5.91601e-05
3.29048e-05
6.14592e-05
3.21569e-05
3.21569e-05
3.21567e-05
3.09268e-05
3.09267e-05
3.09267e-05
3.09266e-05
3.07734e-05
3.04785e-05
3.21362e-05
3.15498e-05
3.16253e-05
2.98565e-05
3.17084e-05
8.4419e-05
8.50855e-05
3.07718e-05
3.2136e-05
3.04686e-05
3.15494e-05
3.16229e-05
3.17081e-05
2.98441e-05
3.01952e-05
3.01062e-05
3.12649e-05
2.99789e-05
2.99564e-05
3.07349e-05
6.43497e-05
3.13272e-05
6.57447e-05
8.45997e-05
8.39161e-05
3.07381e-05
6.4353e-05
3.13353e-05
6.57497e-05
3.05329e-05
3.05329e-05
3.05329e-05
2.93958e-05
2.93956e-05
2.93954e-05
2.93956e-05
2.85834e-05
2.91166e-05
3.04668e-05
2.97943e-05
2.94012e-05
2.86518e-05
3.00658e-05
8.46135e-05
8.39197e-05
2.85827e-05
3.04666e-05
2.91116e-05
2.97938e-05
2.94005e-05
3.00655e-05
2.8648e-05
2.99423e-05
2.99428e-05
2.93388e-05
3.00476e-05
3.00436e-05
2.94995e-05
6.73135e-05
2.99892e-05
6.80415e-05
8.21922e-05
8.12254e-05
2.95007e-05
6.73155e-05
2.99879e-05
6.80444e-05
2.90303e-05
2.903e-05
2.90303e-05
2.79725e-05
2.79724e-05
2.79717e-05
2.79721e-05
2.65492e-05
2.81028e-05
2.8899e-05
2.81442e-05
2.73078e-05
2.77643e-05
2.85217e-05
8.21942e-05
8.12316e-05
2.65457e-05
2.88986e-05
2.80982e-05
2.81431e-05
2.7305e-05
2.85212e-05
2.77414e-05
3.04745e-05
3.04204e-05
2.75179e-05
3.08007e-05
3.07139e-05
2.85889e-05
6.87314e-05
2.89286e-05
6.90286e-05
7.94191e-05
7.85423e-05
2.8591e-05
6.87333e-05
2.89279e-05
6.90309e-05
2.76319e-05
2.7631e-05
2.76314e-05
2.66446e-05
2.66446e-05
2.66434e-05
2.66433e-05
2.47235e-05
2.73895e-05
2.74238e-05
2.66036e-05
2.54065e-05
2.71606e-05
2.70691e-05
7.9423e-05
7.85517e-05
2.47182e-05
2.74228e-05
2.73671e-05
2.66007e-05
2.54006e-05
2.70678e-05
2.7139e-05
3.1631e-05
3.14901e-05
2.58298e-05
3.21392e-05
3.19952e-05
2.80351e-05
6.92361e-05
2.82315e-05
6.92978e-05
7.69964e-05
7.62997e-05
2.80434e-05
6.92387e-05
2.82237e-05
6.93005e-05
2.63265e-05
2.63252e-05
2.6325e-05
2.54036e-05
2.54036e-05
2.54022e-05
2.54019e-05
2.31429e-05
2.69748e-05
2.60385e-05
2.5174e-05
2.374e-05
2.68967e-05
2.57061e-05
7.7008e-05
7.6316e-05
2.31407e-05
2.60368e-05
2.69635e-05
2.51707e-05
2.37355e-05
2.57043e-05
2.6885e-05
3.32832e-05
3.32212e-05
2.43021e-05
3.3924e-05
3.3889e-05
2.78995e-05
6.92805e-05
2.79115e-05
6.92574e-05
7.50746e-05
7.45447e-05
2.78998e-05
6.92827e-05
2.79108e-05
6.92592e-05
2.51062e-05
2.51048e-05
2.51044e-05
2.42433e-05
2.42433e-05
2.42419e-05
2.42417e-05
2.18271e-05
2.69164e-05
2.4742e-05
2.38548e-05
2.23306e-05
2.69642e-05
2.44317e-05
7.5092e-05
7.4558e-05
2.18269e-05
2.47404e-05
2.69101e-05
2.38523e-05
2.23295e-05
2.44301e-05
2.69534e-05
3.52917e-05
3.52956e-05
2.2927e-05
3.60239e-05
3.60237e-05
2.81566e-05
6.91765e-05
2.80224e-05
6.91495e-05
7.36137e-05
7.32221e-05
2.81583e-05
6.91776e-05
2.80213e-05
6.91506e-05
2.39653e-05
2.3964e-05
2.39638e-05
2.31591e-05
2.31591e-05
2.31578e-05
2.31579e-05
2.07865e-05
2.71819e-05
2.35333e-05
2.26474e-05
2.11874e-05
2.73473e-05
2.32444e-05
7.36273e-05
7.3228e-05
2.0785e-05
2.35321e-05
2.71892e-05
2.26455e-05
2.11863e-05
2.32432e-05
2.73334e-05
3.75435e-05
3.7548e-05
2.1706e-05
3.83264e-05
3.83258e-05
2.88244e-05
6.90981e-05
2.85528e-05
6.90895e-05
7.25352e-05
7.22541e-05
2.8828e-05
6.90992e-05
2.85514e-05
6.90911e-05
2.28995e-05
2.28982e-05
2.28984e-05
2.21472e-05
2.21471e-05
2.21458e-05
2.21463e-05
2.00179e-05
2.7769e-05
2.24088e-05
2.15499e-05
2.03074e-05
2.80291e-05
2.21407e-05
7.25387e-05
7.22488e-05
2.00142e-05
2.24078e-05
2.77752e-05
2.15483e-05
2.03062e-05
2.21396e-05
2.80144e-05
3.99257e-05
3.99317e-05
2.06353e-05
4.07374e-05
4.0738e-05
2.99116e-05
6.90888e-05
2.94981e-05
6.91064e-05
7.17638e-05
7.1559e-05
2.99057e-05
6.9091e-05
2.94945e-05
6.9109e-05
2.19051e-05
2.19038e-05
2.19044e-05
2.12043e-05
2.12041e-05
2.12028e-05
2.12035e-05
1.95087e-05
2.86391e-05
2.13679e-05
2.05598e-05
1.9694e-05
2.89999e-05
2.11208e-05
7.17549e-05
7.15594e-05
1.95089e-05
2.1367e-05
2.86506e-05
2.05584e-05
1.96891e-05
2.11198e-05
2.898e-05
4.23495e-05
4.23544e-05
1.97084e-05
4.3151e-05
4.31517e-05
3.13929e-05
6.91398e-05
3.08474e-05
6.91837e-05
7.12177e-05
7.10734e-05
3.13928e-05
6.91428e-05
3.08471e-05
6.91869e-05
2.09789e-05
2.09776e-05
2.09784e-05
2.03263e-05
2.0326e-05
2.03247e-05
2.03256e-05
1.92649e-05
2.97638e-05
2.04102e-05
1.96741e-05
1.93365e-05
3.02019e-05
2.01834e-05
7.12079e-05
7.10766e-05
1.92644e-05
2.04095e-05
2.97758e-05
1.96729e-05
1.93361e-05
2.01826e-05
3.0179e-05
4.47267e-05
4.47311e-05
1.89169e-05
4.54925e-05
4.54964e-05
3.3255e-05
6.92393e-05
3.25884e-05
6.92918e-05
7.08356e-05
7.07343e-05
3.32509e-05
6.92426e-05
3.25898e-05
6.92951e-05
2.01159e-05
2.01146e-05
2.01155e-05
1.95095e-05
1.95093e-05
1.9508e-05
1.95089e-05
1.92819e-05
3.11055e-05
1.95327e-05
1.88912e-05
1.9251e-05
3.15977e-05
1.93255e-05
7.08277e-05
7.07407e-05
1.92757e-05
1.95321e-05
3.11116e-05
1.88902e-05
1.92515e-05
1.93249e-05
3.15905e-05
4.69849e-05
4.69896e-05
1.82552e-05
4.76973e-05
4.77049e-05
3.54332e-05
6.93537e-05
3.46726e-05
6.94058e-05
7.05664e-05
7.04945e-05
3.54357e-05
6.93575e-05
3.46757e-05
6.94102e-05
1.93149e-05
1.93137e-05
1.93146e-05
1.87545e-05
1.87543e-05
1.87532e-05
1.8754e-05
1.95491e-05
3.26113e-05
1.87324e-05
1.82074e-05
1.94305e-05
3.31463e-05
1.85441e-05
7.056e-05
7.05025e-05
1.95435e-05
1.87319e-05
3.26193e-05
1.82065e-05
1.9434e-05
1.85436e-05
3.31339e-05
4.9071e-05
4.90784e-05
1.77252e-05
4.97202e-05
4.9729e-05
3.78656e-05
6.94653e-05
3.7032e-05
6.95137e-05
7.03714e-05
7.03184e-05
3.786e-05
6.947e-05
3.70325e-05
6.95185e-05
1.8575e-05
1.85739e-05
1.85747e-05
1.80586e-05
1.80584e-05
1.80574e-05
1.80581e-05
2.00755e-05
3.42364e-05
1.80068e-05
1.76196e-05
1.9869e-05
3.47909e-05
1.78368e-05
7.03652e-05
7.03243e-05
2.0064e-05
1.80063e-05
3.42399e-05
1.76188e-05
1.98726e-05
1.78363e-05
3.47817e-05
5.09566e-05
5.09661e-05
1.73314e-05
5.15359e-05
5.15465e-05
4.04363e-05
6.95676e-05
3.95706e-05
6.96115e-05
7.02182e-05
7.01817e-05
4.04486e-05
6.9573e-05
3.95684e-05
6.96171e-05
1.78935e-05
1.78926e-05
1.78932e-05
1.74193e-05
1.74191e-05
1.74184e-05
1.74189e-05
2.08429e-05
3.59189e-05
1.73534e-05
1.71265e-05
2.05572e-05
3.64879e-05
1.72012e-05
7.02176e-05
7.01822e-05
2.08364e-05
1.7353e-05
3.59246e-05
1.7126e-05
2.05592e-05
1.72008e-05
3.64842e-05
5.26333e-05
5.26438e-05
1.70706e-05
5.31433e-05
5.31555e-05
4.30575e-05
6.96603e-05
4.21703e-05
6.97006e-05
7.00957e-05
7.00642e-05
4.30731e-05
6.96663e-05
4.21566e-05
6.97068e-05
1.72681e-05
1.72674e-05
1.72679e-05
1.68345e-05
1.68343e-05
1.68339e-05
1.68341e-05
2.18487e-05
3.76186e-05
1.67715e-05
1.67274e-05
2.1481e-05
3.81844e-05
1.66368e-05
7.00956e-05
7.00641e-05
2.18405e-05
1.67712e-05
3.76281e-05
1.67272e-05
2.14878e-05
1.66365e-05
3.81835e-05
5.41045e-05
5.41168e-05
1.69392e-05
5.45486e-05
5.4562e-05
4.55966e-05
6.97457e-05
4.47225e-05
6.97836e-05
6.99886e-05
6.99601e-05
4.56125e-05
6.97522e-05
4.47128e-05
6.97897e-05
1.66966e-05
1.66962e-05
1.66965e-05
1.63027e-05
1.63025e-05
1.63022e-05
1.63023e-05
2.30671e-05
3.92969e-05
1.62587e-05
1.64215e-05
2.26329e-05
3.98416e-05
1.6141e-05
6.99883e-05
6.996e-05
2.30568e-05
1.62586e-05
3.93051e-05
1.64216e-05
2.2639e-05
1.61409e-05
3.98385e-05
5.53866e-05
5.53974e-05
1.69457e-05
5.57722e-05
5.57845e-05
4.7958e-05
6.9826e-05
4.71373e-05
6.98618e-05
6.98908e-05
6.98648e-05
4.79734e-05
6.98327e-05
4.71324e-05
6.98679e-05
1.61779e-05
1.61776e-05
1.61777e-05
1.58219e-05
1.58217e-05
1.58215e-05
1.58215e-05
2.44648e-05
4.09126e-05
1.58137e-05
1.62091e-05
2.39806e-05
4.14346e-05
1.57128e-05
6.98905e-05
6.98647e-05
2.44594e-05
1.58136e-05
4.09208e-05
1.62092e-05
2.39829e-05
1.57127e-05
4.14288e-05
5.64999e-05
5.65104e-05
1.70796e-05
5.68355e-05
5.6847e-05
5.00803e-05
6.99016e-05
4.9339e-05
6.99352e-05
6.98002e-05
6.97764e-05
5.0094e-05
6.99084e-05
4.93367e-05
6.99416e-05
1.57094e-05
1.57092e-05
1.57093e-05
1.53901e-05
1.539e-05
1.53898e-05
1.53898e-05
2.6013e-05
4.24449e-05
1.54361e-05
1.60898e-05
2.54833e-05
4.29354e-05
1.53519e-05
6.97998e-05
6.97761e-05
2.60069e-05
1.54361e-05
4.24521e-05
1.609e-05
2.5486e-05
1.53519e-05
4.29318e-05
5.74685e-05
5.7479e-05
1.73447e-05
5.77612e-05
5.77724e-05
5.19314e-05
6.99722e-05
5.12827e-05
7.00036e-05
6.97154e-05
6.96933e-05
5.19434e-05
6.99788e-05
5.12813e-05
7.00092e-05
1.52896e-05
1.52895e-05
1.52895e-05
1.50063e-05
1.50062e-05
1.50061e-05
1.5006e-05
2.76566e-05
4.38796e-05
1.51256e-05
1.60657e-05
2.71002e-05
4.4337e-05
1.50581e-05
6.97152e-05
6.96933e-05
2.76519e-05
1.51256e-05
4.38833e-05
1.60659e-05
2.71058e-05
1.5058e-05
4.43284e-05
5.83142e-05
5.83242e-05
1.77391e-05
5.85707e-05
5.85811e-05
5.35092e-05
7.00377e-05
5.29544e-05
7.00659e-05
6.96363e-05
6.96162e-05
5.35196e-05
7.00459e-05
5.29538e-05
7.00706e-05
1.49177e-05
1.49176e-05
1.49176e-05
1.46696e-05
1.46695e-05
1.46694e-05
1.46693e-05
2.93526e-05
4.52036e-05
1.48824e-05
1.61294e-05
2.87853e-05
4.56241e-05
1.48315e-05
6.96364e-05
6.96165e-05
2.93482e-05
1.48824e-05
4.52105e-05
1.61299e-05
2.87901e-05
1.48313e-05
4.56216e-05
5.90555e-05
5.90664e-05
1.82543e-05
5.92808e-05
5.92926e-05
5.48334e-05
7.00982e-05
5.43641e-05
7.01201e-05
6.95633e-05
6.95451e-05
5.48423e-05
7.01048e-05
5.43646e-05
7.01268e-05
1.45926e-05
1.45926e-05
1.45926e-05
1.43793e-05
1.43792e-05
1.43792e-05
1.43792e-05
3.10573e-05
4.64237e-05
1.47069e-05
1.62853e-05
3.04906e-05
4.68097e-05
1.46728e-05
6.95633e-05
6.95452e-05
3.10571e-05
1.47069e-05
4.64294e-05
1.62856e-05
3.04957e-05
1.46727e-05
4.68052e-05
5.971e-05
5.97211e-05
1.88841e-05
5.99098e-05
5.99208e-05
5.59348e-05
7.01503e-05
5.5541e-05
7.01695e-05
6.9496e-05
6.94796e-05
5.59438e-05
7.01569e-05
5.55415e-05
7.01761e-05
1.43139e-05
1.43138e-05
1.43139e-05
1.41351e-05
1.4135e-05
1.41349e-05
1.4135e-05
3.27252e-05
4.75421e-05
1.46001e-05
1.653e-05
3.21785e-05
4.78894e-05
1.4583e-05
6.94959e-05
6.94797e-05
3.27289e-05
1.46001e-05
4.75469e-05
1.65302e-05
3.2177e-05
1.4583e-05
4.78925e-05
6.02918e-05
6.03039e-05
1.96125e-05
6.04713e-05
6.04826e-05
5.68519e-05
7.01948e-05
5.6519e-05
7.0212e-05
6.94346e-05
6.94201e-05
5.68617e-05
7.02021e-05
5.65206e-05
7.02191e-05
1.4081e-05
1.4081e-05
1.4081e-05
1.39363e-05
1.39362e-05
1.39362e-05
1.39363e-05
3.43361e-05
4.85679e-05
1.45625e-05
1.68607e-05
3.3809e-05
4.88837e-05
1.45643e-05
6.94343e-05
6.942e-05
3.43351e-05
1.45626e-05
4.85648e-05
1.6861e-05
3.38118e-05
1.45644e-05
4.88862e-05
6.08137e-05
6.08248e-05
2.04105e-05
6.09748e-05
6.09865e-05
5.76218e-05
7.02343e-05
5.73358e-05
7.02489e-05
6.93791e-05
6.93666e-05
5.76313e-05
7.02413e-05
5.7339e-05
7.02563e-05
1.38934e-05
1.38935e-05
1.38937e-05
1.37827e-05
1.37826e-05
1.37827e-05
1.37829e-05
3.58598e-05
4.95029e-05
1.45932e-05
1.72746e-05
3.53639e-05
4.97913e-05
1.46117e-05
6.93784e-05
6.93661e-05
3.58596e-05
1.45933e-05
4.95016e-05
1.72749e-05
3.53658e-05
1.46121e-05
4.97935e-05
6.12825e-05
6.12941e-05
2.1327e-05
6.14281e-05
6.14396e-05
5.8276e-05
7.02682e-05
5.80268e-05
7.02815e-05
6.9329e-05
6.93184e-05
5.82846e-05
7.02752e-05
5.80306e-05
7.02887e-05
1.37511e-05
1.37512e-05
1.37515e-05
1.36742e-05
1.36741e-05
1.36742e-05
1.36745e-05
3.72876e-05
5.03599e-05
1.46931e-05
1.77678e-05
3.68251e-05
5.0625e-05
1.47287e-05
6.93281e-05
6.93178e-05
3.72888e-05
1.46936e-05
5.03589e-05
1.77686e-05
3.68283e-05
1.47295e-05
5.0629e-05
6.17076e-05
6.17186e-05
2.22866e-05
6.18397e-05
6.18505e-05
5.88402e-05
7.02989e-05
5.86197e-05
7.03112e-05
6.92844e-05
6.92758e-05
5.88469e-05
7.03049e-05
5.86238e-05
7.0319e-05
1.36537e-05
1.36539e-05
1.36543e-05
1.36107e-05
1.36105e-05
1.36108e-05
1.36112e-05
3.86129e-05
5.11466e-05
1.48612e-05
1.83362e-05
3.81877e-05
5.13907e-05
1.49137e-05
6.92832e-05
6.92748e-05
3.86163e-05
1.48619e-05
5.1148e-05
1.83377e-05
3.81904e-05
1.49147e-05
5.1394e-05
6.2094e-05
6.21052e-05
2.32917e-05
6.22154e-05
6.22262e-05
5.93337e-05
7.03271e-05
5.9137e-05
7.034e-05
6.92453e-05
6.92386e-05
5.93389e-05
7.03341e-05
5.9142e-05
7.03469e-05
1.36013e-05
1.36017e-05
1.36021e-05
1.35929e-05
1.35925e-05
1.3593e-05
1.35935e-05
3.98443e-05
5.18723e-05
1.50967e-05
1.89753e-05
3.94501e-05
5.20988e-05