/*--------------------------------*- C++ -*----------------------------------*\
| =========                 |                                                 |
| \\      /  F ield         | OpenFOAM: The Open Source CFD Toolbox           |
|  \\    /   O peration     | Version:  v2012                                 |
|   \\  /    A nd           | Website:  www.openfoam.com                      |
|    \\/     M anipulation  |                                                 |
\*---------------------------------------------------------------------------*/
FoamFile
{
    version     2.0;
    format      ascii;
    class       volScalarField;
    location    "400";
    object      p;
}
// * * * * * * * * * * * * * * * * * * * * * * * * * * * * * * * * * * * * * //

dimensions      [0 2 -2 0 0 0 0];


internalField   nonuniform List<scalar> 
171728
(
0.00166685
0.00166677
0.00166834
0.00166677
0.00166677
0.00166677
0.00166834
0.00166878
0.00166878
0.00166879
0.00166685
0.00166879
0.00166875
0.00166879
0.00166879
0.00166879
0.00166879
0.00166875
0.00166875
0.00166681
0.00166873
0.00166878
0.00166879
0.00166681
0.00166875
0.00166873
0.00166879
0.00166879
0.00166879
0.00166878
0.00166443
0.00166879
0.00166879
0.00166442
0.00166443
0.00166879
0.00166442
0.00166879
0.00166442
0.00166445
0.00166878
0.00166879
0.00166444
0.00166442
0.00166879
0.00166442
0.00166442
0.00166442
0.00166447
0.00166875
0.00166443
0.00166878
0.00166443
0.00166452
0.00166877
0.00166447
0.00166875
0.00166443
0.00166878
0.00166443
0.00166452
0.00166877
0.00166442
0.0016688
0.0016688
0.00166442
0.00166442
0.0016688
0.00166442
0.00166443
0.00166879
0.00166442
0.00166879
0.00166442
0.00166445
0.00166879
0.00166878
0.00166442
0.00166444
0.00166879
0.00166447
0.00166875
0.00166443
0.00166878
0.00166443
0.00166452
0.00166877
0.00166447
0.00166875
0.00166443
0.00166878
0.00166452
0.00166443
0.00166877
0.00166442
0.0016688
0.0016688
0.00166442
0.00166442
0.0016688
0.00166442
0.00166443
0.00166686
0.00166462
0.00166855
0.00166855
0.00166512
0.00166481
0.00166481
0.00166868
0.00166462
0.00166855
0.00166855
0.00166512
0.00166481
0.00166482
0.00166868
0.00166686
0.0016648
0.00166861
0.0016645
0.00166873
0.00166466
0.00166455
0.00166856
0.0016648
0.00166861
0.0016645
0.00166873
0.00166455
0.00166466
0.00166856
0.0016648
0.00166861
0.0016645
0.00166873
0.00166455
0.00166466
0.00166856
0.00166483
0.00166459
0.00166872
0.00166854
0.00166458
0.00166484
0.00166852
0.0016648
0.00166861
0.0016645
0.00166873
0.00166455
0.00166466
0.00166856
0.00166483
0.00166459
0.00166854
0.00166872
0.00166484
0.00166458
0.00166852
0.00358693
0.00358675
0.00358675
0.00358955
0.00353339
0.00353353
0.00353353
0.00353573
0.00348211
0.00348215
0.00348215
0.00348446
0.00343021
0.00343018
0.00343018
0.00343246
0.00337914
0.00337909
0.00337909
0.00338132
0.00332943
0.00332939
0.00332939
0.00333158
0.00328116
0.00328113
0.00328113
0.00328328
0.00323418
0.00323416
0.00323416
0.00323628
0.00318828
0.00318828
0.00318828
0.00319037
0.00314328
0.00314328
0.00314328
0.00314535
0.00309901
0.00309901
0.00309901
0.00310106
0.00305533
0.00305534
0.00305534
0.00305736
0.00301216
0.00301217
0.00301217
0.00301417
0.00296946
0.00296947
0.00296947
0.00297144
0.00292718
0.00292719
0.00292719
0.00292916
0.00288532
0.00288532
0.00288532
0.00288727
0.00284383
0.00284383
0.00284383
0.00284576
0.00280269
0.0028027
0.0028027
0.00280461
0.00276189
0.0027619
0.0027619
0.0027638
0.0027214
0.00272141
0.00272141
0.0027233
0.0026812
0.0026812
0.0026812
0.00268308
0.00264126
0.00264126
0.00264127
0.00264313
0.00260158
0.00260158
0.00260158
0.00260343
0.00256213
0.00256213
0.00256213
0.00256397
0.00252291
0.00252291
0.00252291
0.00252474
0.0024839
0.0024839
0.0024839
0.00248571
0.0024451
0.00244509
0.00244509
0.0024469
0.0024065
0.00240649
0.00240649
0.00240828
0.00236809
0.00236808
0.00236808
0.00236985
0.00232987
0.00232985
0.00232985
0.0023316
0.00229182
0.0022918
0.0022918
0.00229354
0.00225395
0.00225393
0.00225393
0.00225565
0.00221625
0.00221622
0.00221622
0.00221792
0.0021787
0.00217868
0.00217868
0.00218036
0.00214132
0.00214129
0.00214129
0.00214296
0.00210408
0.00210405
0.00210405
0.00210571
0.00206699
0.00206695
0.00206695
0.0020686
0.00203004
0.00203
0.00203
0.00203163
0.00199322
0.00199317
0.00199317
0.0019948
0.00195652
0.00195647
0.00195647
0.00195809
0.00191995
0.0019199
0.0019199
0.00192151
0.00188349
0.00188344
0.00188344
0.00188504
0.00184714
0.00184708
0.00184708
0.00184868
0.0018109
0.00181084
0.00181084
0.00181243
0.00177476
0.00177469
0.00177469
0.00177627
0.0017387
0.00173863
0.00173863
0.00174021
0.00170273
0.00170266
0.00170266
0.00170423
0.00360032
0.00360052
0.00360051
0.00360032
0.00360052
0.00360052
0.00360125
0.00360125
0.00360126
0.00360126
0.00360052
0.00360052
0.00360033
0.00360052
0.00360052
0.00360033
0.00358955
0.0035434
0.00358675
0.00358675
0.0035459
0.0035459
0.00358955
0.0035434
0.00358675
0.00358675
0.0035459
0.0035459
0.00358675
0.0035459
0.0035459
0.00358955
0.0035434
0.00358675
0.0035459
0.0035459
0.0035434
0.00353573
0.00349249
0.00353353
0.00353353
0.00349515
0.00349515
0.00353573
0.00349249
0.00353353
0.00353353
0.00349515
0.00349515
0.00353353
0.00349515
0.00349515
0.00353573
0.00349249
0.00353353
0.00349515
0.00349515
0.00349249
0.00348445
0.00344045
0.00348215
0.00348215
0.00344312
0.00344313
0.00348445
0.00344045
0.00348215
0.00348215
0.00344312
0.00344313
0.00348215
0.00344312
0.00344313
0.00348446
0.00344045
0.00348215
0.00344313
0.00344313
0.00344045
0.00343246
0.00338912
0.00343018
0.00343018
0.00339174
0.00339174
0.00343245
0.00338912
0.00343018
0.00343018
0.00339174
0.00339174
0.00343018
0.00339174
0.00339174
0.00343246
0.00338912
0.00343018
0.00339174
0.00339174
0.00338912
0.00338132
0.00333916
0.00337909
0.00337909
0.00334167
0.00334168
0.00338132
0.00333916
0.00337909
0.00337909
0.00334167
0.00334167
0.00337909
0.00334167
0.00334167
0.00338132
0.00333916
0.00337909
0.00334167
0.00334167
0.00333916
0.00333158
0.00329065
0.00332939
0.00332939
0.00329306
0.00329306
0.00333158
0.00329065
0.00332939
0.00332939
0.00329306
0.00329306
0.00332939
0.00329306
0.00329306
0.00333158
0.00329065
0.00332938
0.00329306
0.00329306
0.00329065
0.00328328
0.00324346
0.00328113
0.00328113
0.00324579
0.00324579
0.00328328
0.00324346
0.00328113
0.00328113
0.00324579
0.00324579
0.00328113
0.00324579
0.00324579
0.00328328
0.00324346
0.00328113
0.00324579
0.00324579
0.00324346
0.00323628
0.0031974
0.00323416
0.00323416
0.00319966
0.00319966
0.00323628
0.0031974
0.00323416
0.00323416
0.00319966
0.00319966
0.00323416
0.00319966
0.00319966
0.00323628
0.0031974
0.00323416
0.00319966
0.00319966
0.0031974
0.00319037
0.00315226
0.00318828
0.00318828
0.00315446
0.00315446
0.00319037
0.00315226
0.00318828
0.00318828
0.00315446
0.00315446
0.00318828
0.00315446
0.00315446
0.00319037
0.00315226
0.00318828
0.00315446
0.00315446
0.00315226
0.00314535
0.00310787
0.00314328
0.00314328
0.00311002
0.00311002
0.00314535
0.00310787
0.00314328
0.00314328
0.00311002
0.00311002
0.00314328
0.00311002
0.00311002
0.00314535
0.00310787
0.00314328
0.00311002
0.00311002
0.00310787
0.00310106
0.00306409
0.00309901
0.00309901
0.0030662
0.0030662
0.00310106
0.00306408
0.00309901
0.00309901
0.0030662
0.0030662
0.00309901
0.00306621
0.0030662
0.00310106
0.00306408
0.00309901
0.0030662
0.00306621
0.00306408
0.00305736
0.00302082
0.00305534
0.00305534
0.00302292
0.00302292
0.00305736
0.00302082
0.00305534
0.00305533
0.00302292
0.00302292
0.00305534
0.00302292
0.00302292
0.00305736
0.00302082
0.00305534
0.00302292
0.00302292
0.00302082
0.00301417
0.00297803
0.00301217
0.00301217
0.0029801
0.0029801
0.00301417
0.00297803
0.00301217
0.00301217
0.0029801
0.0029801
0.00301217
0.0029801
0.0029801
0.00301417
0.00297803
0.00301217
0.0029801
0.0029801
0.00297803
0.00297144
0.0029357
0.00296947
0.00296947
0.00293772
0.00293772
0.00297144
0.0029357
0.00296947
0.00296947
0.00293772
0.00293772
0.00296947
0.00293772
0.00293772
0.00297145
0.00293569
0.00296947
0.00293772
0.00293772
0.0029357
0.00292916
0.00289377
0.00292719
0.00292719
0.00289575
0.00289575
0.00292916
0.00289377
0.00292719
0.00292719
0.00289575
0.00289575
0.00292719
0.00289575
0.00289575
0.00292916
0.00289377
0.00292719
0.00289576
0.00289575
0.00289377
0.00288727
0.00285222
0.00288532
0.00288532
0.00285417
0.00285417
0.00288727
0.00285222
0.00288532
0.00288532
0.00285417
0.00285417
0.00288532
0.00285417
0.00285417
0.00288727
0.00285222
0.00288532
0.00285417
0.00285417
0.00285222
0.00284576
0.00281103
0.00284383
0.00284383
0.00281295
0.00281295
0.00284576
0.00281103
0.00284383
0.00284383
0.00281295
0.00281295
0.00284383
0.00281295
0.00281295
0.00284576
0.00281103
0.00284383
0.00281295
0.00281295
0.00281103
0.00280462
0.00277018
0.0028027
0.0028027
0.00277207
0.00277207
0.00280462
0.00277018
0.0028027
0.0028027
0.00277207
0.00277207
0.0028027
0.00277207
0.00277207
0.00280461
0.00277018
0.0028027
0.00277207
0.00277207
0.00277018
0.0027638
0.00272964
0.0027619
0.0027619
0.0027315
0.0027315
0.0027638
0.00272964
0.0027619
0.0027619
0.0027315
0.0027315
0.0027619
0.0027315
0.0027315
0.0027638
0.00272965
0.0027619
0.0027315
0.0027315
0.00272965
0.00272329
0.0026894
0.00272141
0.0027214
0.00269123
0.00269123
0.00272329
0.0026894
0.00272141
0.00272141
0.00269123
0.00269123
0.00272141
0.00269123
0.00269123
0.00272329
0.0026894
0.00272141
0.00269123
0.00269123
0.0026894
0.00268308
0.00264942
0.0026812
0.0026812
0.00265122
0.00265122
0.00268308
0.00264942
0.0026812
0.0026812
0.00265123
0.00265123
0.0026812
0.00265123
0.00265123
0.00268308
0.00264942
0.0026812
0.00265123
0.00265123
0.00264942
0.00264313
0.00260969
0.00264126
0.00264126
0.00261148
0.00261148
0.00264313
0.0026097
0.00264126
0.00264126
0.00261148
0.00261148
0.00264127
0.00261148
0.00261148
0.00264313
0.00260969
0.00264126
0.00261148
0.00261148
0.00260969
0.00260343
0.00257021
0.00260158
0.00260158
0.00257197
0.00257197
0.00260343
0.00257021
0.00260158
0.00260158
0.00257197
0.00257197
0.00260158
0.00257197
0.00257197
0.00260343
0.00257021
0.00260158
0.00257197
0.00257197
0.00257021
0.00256397
0.00253095
0.00256213
0.00256213
0.00253269
0.00253269
0.00256397
0.00253095
0.00256213
0.00256213
0.00253269
0.00253269
0.00256213
0.00253269
0.00253269
0.00256397
0.00253095
0.00256213
0.00253269
0.00253269
0.00253095
0.00252474
0.0024919
0.00252291
0.00252291
0.00249363
0.00249363
0.00252474
0.0024919
0.00252291
0.00252291
0.00249363
0.00249363
0.00252291
0.00249363
0.00249363
0.00252474
0.0024919
0.00252291
0.00249363
0.00249363
0.0024919
0.00248571
0.00245306
0.0024839
0.0024839
0.00245477
0.00245477
0.00248571
0.00245306
0.0024839
0.0024839
0.00245477
0.00245477
0.0024839
0.00245477
0.00245477
0.00248571
0.00245306
0.0024839
0.00245478
0.00245477
0.00245306
0.0024469
0.00241441
0.00244509
0.00244509
0.00241612
0.00241612
0.0024469
0.00241441
0.00244509
0.00244509
0.00241612
0.00241612
0.00244509
0.00241612
0.00241612
0.0024469
0.00241441
0.00244509
0.00241612
0.00241612
0.00241441
0.00240828
0.00237596
0.00240649
0.00240649
0.00237766
0.00237766
0.00240827
0.00237596
0.00240649
0.00240649
0.00237766
0.00237766
0.00240649
0.00237766
0.00237766
0.00240828
0.00237596
0.00240649
0.00237766
0.00237766
0.00237596
0.00236985
0.00233769
0.00236808
0.00236808
0.00233939
0.00233939
0.00236985
0.00233769
0.00236808
0.00236808
0.00233939
0.00233939
0.00236808
0.00233939
0.00233939
0.00236985
0.00233769
0.00236808
0.00233939
0.00233939
0.00233769
0.0023316
0.0022996
0.00232985
0.00232985
0.0023013
0.0023013
0.0023316
0.0022996
0.00232985
0.00232985
0.0023013
0.0023013
0.00232985
0.0023013
0.0023013
0.0023316
0.0022996
0.00232985
0.0023013
0.0023013
0.0022996
0.00229354
0.00226169
0.0022918
0.0022918
0.00226338
0.00226338
0.00229354
0.00226169
0.0022918
0.0022918
0.00226338
0.00226338
0.0022918
0.00226338
0.00226338
0.00229354
0.00226169
0.0022918
0.00226338
0.00226338
0.00226169
0.00225565
0.00222394
0.00225393
0.00225393
0.00222563
0.00222563
0.00225565
0.00222394
0.00225393
0.00225393
0.00222563
0.00222563
0.00225393
0.00222563
0.00222563
0.00225565
0.00222394
0.00225393
0.00222563
0.00222563
0.00222394
0.00221792
0.00218636
0.00221622
0.00221622
0.00218805
0.00218805
0.00221792
0.00218636
0.00221622
0.00221622
0.00218805
0.00218805
0.00221622
0.00218805
0.00218805
0.00221792
0.00218636
0.00221622
0.00218805
0.00218805
0.00218636
0.00218036
0.00214893
0.00217868
0.00217868
0.00215062
0.00215062
0.00218036
0.00214893
0.00217868
0.00217868
0.00215062
0.00215062
0.00217868
0.00215062
0.00215062
0.00218036
0.00214893
0.00217868
0.00215062
0.00215062
0.00214893
0.00214296
0.00211166
0.00214129
0.00214129
0.00211334
0.00211334
0.00214296
0.00211166
0.00214129
0.00214129
0.00211334
0.00211334
0.00214129
0.00211334
0.00211334
0.00214296
0.00211166
0.00214129
0.00211334
0.00211334
0.00211166
0.00210571
0.00207453
0.00210405
0.00210405
0.00207621
0.00207621
0.00210571
0.00207453
0.00210405
0.00210405
0.00207621
0.00207621
0.00210405
0.00207621
0.00207621
0.00210571
0.00207453
0.00210405
0.00207621
0.00207621
0.00207453
0.0020686
0.00203754
0.00206695
0.00206695
0.00203922
0.00203922
0.0020686
0.00203754
0.00206695
0.00206695
0.00203922
0.00203922
0.00206695
0.00203922
0.00203922
0.0020686
0.00203754
0.00206695
0.00203922
0.00203922
0.00203754
0.00203163
0.00200069
0.00203
0.00203
0.00200237
0.00200237
0.00203163
0.00200069
0.00203
0.00203
0.00200237
0.00200236
0.00203
0.00200237
0.00200237
0.00203163
0.00200069
0.00203
0.00200237
0.00200237
0.00200069
0.0019948
0.00196396
0.00199317
0.00199317
0.00196564
0.00196564
0.0019948
0.00196396
0.00199317
0.00199317
0.00196564
0.00196564
0.00199317
0.00196564
0.00196564
0.0019948
0.00196396
0.00199317
0.00196564
0.00196564
0.00196396
0.00195809
0.00192736
0.00195647
0.00195647
0.00192903
0.00192903
0.00195809
0.00192736
0.00195647
0.00195647
0.00192903
0.00192903
0.00195647
0.00192903
0.00192903
0.00195809
0.00192736
0.00195647
0.00192903
0.00192903
0.00192736
0.00192151
0.00189087
0.0019199
0.0019199
0.00189254
0.00189254
0.00192151
0.00189087
0.0019199
0.0019199
0.00189254
0.00189254
0.0019199
0.00189254
0.00189254
0.00192151
0.00189087
0.0019199
0.00189254
0.00189254
0.00189087
0.00188504
0.0018545
0.00188344
0.00188344
0.00185616
0.00185616
0.00188504
0.0018545
0.00188344
0.00188344
0.00185616
0.00185616
0.00188344
0.00185616
0.00185616
0.00188504
0.0018545
0.00188344
0.00185616
0.00185616
0.0018545
0.00184868
0.00181823
0.00184708
0.00184708
0.00181989
0.00181989
0.00184868
0.00181823
0.00184708
0.00184708
0.00181989
0.00181989
0.00184708
0.00181989
0.00181989
0.00184868
0.00181823
0.00184708
0.00181989
0.00181989
0.00181823
0.00181243
0.00178206
0.00181084
0.00181084
0.00178372
0.00178371
0.00181243
0.00178206
0.00181084
0.00181084
0.00178372
0.00178372
0.00181084
0.00178371
0.00178372
0.00181243
0.00178206
0.00181084
0.00178372
0.00178372
0.00178206
0.00177627
0.00174598
0.00177469
0.00177469
0.00174764
0.00174764
0.00177627
0.00174598
0.00177469
0.00177469
0.00174763
0.00174763
0.00177469
0.00174764
0.00174764
0.00177627
0.00174598
0.00177469
0.00174763
0.00174764
0.00174598
0.00174021
0.00170999
0.00173863
0.00173863
0.00171164
0.00171164
0.00174021
0.00170999
0.00173863
0.00173863
0.00171164
0.00171164
0.00173863
0.00171164
0.00171164
0.00174021
0.00170999
0.00173863
0.00171164
0.00171164
0.00170999
0.00170423
0.00167408
0.00170266
0.00170266
0.00167573
0.00167573
0.00170423
0.00167408
0.00170266
0.00170266
0.00167573
0.00167573
0.00170266
0.00167573
0.00167573
0.00170423
0.00167408
0.00170266
0.00167573
0.00167573
0.00167408
0.00360947
0.00361945
0.00361405
0.00361405
0.00363648
0.00362343
0.00365187
0.00361734
0.00363652
0.00362344
0.00361735
0.00365193
0.00362794
0.00365599
0.003656
0.00356842
0.00356854
0.00358678
0.00356674
0.00354682
0.00356562
0.00356843
0.00356858
0.00358677
0.00356673
0.00358693
0.00358694
0.00358693
0.00354578
0.00354578
0.00354578
0.00354578
0.00356709
0.00358385
0.00358701
0.00357125
0.00358916
0.00356806
0.00357189
0.00354675
0.0035657
0.00356709
0.00358701
0.00358388
0.00357125
0.00358915
0.00357189
0.00356805
0.00358045
0.00358042
0.0035681
0.00356842
0.00356842
0.00351875
0.00353661
0.00353763
0.00351785
0.003536
0.00351738
0.00351875
0.0035366
0.00353763
0.00351784
0.00353339
0.00353339
0.00353339
0.00349509
0.00349509
0.00349509
0.00349509
0.00351785
0.0035371
0.00353346
0.00352091
0.00353639
0.00351832
0.00352085
0.003536
0.00351738
0.00351785
0.00353346
0.0035371
0.00352091
0.0035364
0.00352085
0.00351832
0.00353737
0.00353737
0.00351828
0.00351844
0.00351845
0.00346649
0.00348508
0.00348592
0.00346571
0.00348479
0.00346548
0.00346649
0.00348508
0.00348593
0.00346571
0.00348211
0.00348211
0.00348211
0.00344315
0.00344315
0.00344315
0.00344315
0.00346597
0.00348546
0.00348212
0.00346913
0.00348516
0.00346614
0.00346911
0.00348479
0.00346548
0.00346597
0.00348212
0.00348546
0.00346913
0.00348516
0.00346911
0.00346614
0.00348553
0.00348554
0.00346645
0.00346609
0.00346609
0.00341438
0.00343287
0.00343355
0.00341377
0.0034327
0.00341361
0.00341438
0.00343287
0.00343355
0.00341377
0.00343021
0.00343021
0.00343021
0.00339179
0.00339179
0.00339179
0.00339179
0.0034141
0.00343318
0.00343018
0.00341729
0.00343307
0.00341415
0.0034173
0.0034327
0.00341361
0.0034141
0.00343018
0.00343318
0.00341729
0.00343308
0.0034173
0.00341415
0.00343317
0.00343317
0.00341464
0.00341403
0.00341403
0.00336351
0.00338165
0.00338215
0.00336307
0.00338153
0.00336294
0.0033635
0.00338164
0.00338215
0.00336307
0.00337914
0.00337914
0.00337914
0.00334172
0.00334172
0.00334172
0.00334172
0.00336339
0.00338189
0.00337909
0.00336653
0.00338185
0.0033634
0.00336653
0.00338152
0.00336294
0.00336339
0.00337909
0.00338189
0.00336652
0.00338185
0.00336653
0.00336339
0.00338187
0.00338187
0.00336396
0.00336327
0.00336327
0.00331416
0.00333187
0.00333222
0.00331385
0.00333179
0.00331373
0.00331416
0.00333187
0.00333222
0.00331385
0.00332943
0.00332943
0.00332943
0.0032931
0.0032931
0.0032931
0.0032931
0.00331415
0.00333205
0.00332939
0.00331719
0.00333204
0.00331414
0.00331719
0.00333178
0.00331374
0.00331415
0.00332939
0.00333205
0.00331719
0.00333204
0.00331719
0.00331414
0.00333206
0.00333205
0.00331473
0.00331403
0.00331402
0.00326627
0.00328356
0.0032838
0.00326605
0.00328348
0.00326595
0.00326627
0.00328356
0.00328381
0.00326605
0.00328116
0.00328116
0.00328116
0.00324581
0.00324581
0.00324581
0.00324581
0.00326633
0.0032837
0.00328112
0.00326927
0.00328369
0.00326632
0.00326926
0.00328348
0.00326595
0.00326633
0.00328112
0.0032837
0.00326927
0.00328369
0.00326926
0.00326632
0.00328373
0.00328373
0.0032669
0.00326621
0.00326622
0.00321965
0.00323655
0.00323673
0.00321948
0.00323648
0.00321938
0.00321965
0.00323655
0.00323673
0.00321948
0.00323418
0.00323418
0.00323418
0.00319967
0.00319967
0.00319967
0.00319967
0.00321975
0.00323667
0.00323414
0.00322259
0.00323666
0.00321974
0.00322258
0.00323648
0.00321938
0.00321975
0.00323414
0.00323667
0.0032226
0.00323666
0.00322258
0.00321974
0.00323671
0.00323671
0.0032203
0.00321963
0.00321963
0.00317406
0.00319064
0.00319078
0.00317393
0.00319057
0.00317383
0.00317406
0.00319064
0.00319078
0.00317393
0.00318828
0.00318828
0.00318828
0.00315446
0.00315446
0.00315446
0.00315446
0.00317419
0.00319074
0.00318826
0.00317695
0.00319073
0.00317418
0.00317693
0.00319057
0.00317383
0.00317419
0.00318826
0.00319074
0.00317695
0.00319073
0.00317693
0.00317418
0.00319078
0.00319078
0.00317472
0.00317406
0.00317406
0.00312931
0.00314563
0.00314574
0.0031292
0.00314556
0.0031291
0.00312931
0.00314563
0.00314574
0.0031292
0.00314328
0.00314328
0.00314328
0.00311001
0.00311001
0.00311001
0.00311001
0.00312947
0.00314571
0.00314326
0.00313215
0.0031457
0.00312945
0.00313213
0.00314556
0.0031291
0.00312946
0.00314326
0.00314571
0.00313215
0.0031457
0.00313213
0.00312945
0.00314575
0.00314575
0.00312998
0.00312932
0.00312932
0.00308525
0.00310133
0.00310143
0.00308513
0.00310127
0.00308504
0.00308525
0.00310133
0.00310143
0.00308513
0.00309901
0.003099
0.00309901
0.00306619
0.0030662
0.00306619
0.0030662
0.00308542
0.00310141
0.00309899
0.00308804
0.0031014
0.00308539
0.00308802
0.00310126
0.00308504
0.00308542
0.00309899
0.0031014
0.00308804
0.0031014
0.00308802
0.00308539
0.00310144
0.00310144
0.00308591
0.00308525
0.00308525
0.00304175
0.00305763
0.00305773
0.00304163
0.00305757
0.00304155
0.00304175
0.00305763
0.00305773
0.00304163
0.00305533
0.00305533
0.00305533
0.00302291
0.00302291
0.00302291
0.00302291
0.00304194
0.0030577
0.00305532
0.0030445
0.00305771
0.00304189
0.00304448
0.00305757
0.00304154
0.00304194
0.00305532
0.00305769
0.0030445
0.00305771
0.00304448
0.00304189
0.00305773
0.00305773
0.00304239
0.00304174
0.00304174
0.00299874
0.00301445
0.00301454
0.00299862
0.00301439
0.00299854
0.00299874
0.00301445
0.00301455
0.00299862
0.00301216
0.00301216
0.00301216
0.00298009
0.00298009
0.00298009
0.00298009
0.00299895
0.0030145
0.00301215
0.00300145
0.00301453
0.00299888
0.00300144
0.00301439
0.00299854
0.00299895
0.00301215
0.0030145
0.00300145
0.00301453
0.00300144
0.00299888
0.00301454
0.00301454
0.00299936
0.00299872
0.00299872
0.00295618
0.00297172
0.00297182
0.00295606
0.00297167
0.00295598
0.00295618
0.00297172
0.00297182
0.00295606
0.00296946
0.00296946
0.00296946
0.00293771
0.00293771
0.00293771
0.00293771
0.00295641
0.00297177
0.00296946
0.00295886
0.00297181
0.00295631
0.00295885
0.00297167
0.00295598
0.00295641
0.00296946
0.00297177
0.00295886
0.00297181
0.00295885
0.00295631
0.0029718
0.0029718
0.00295681
0.00295614
0.00295614
0.00291404
0.00292943
0.00292953
0.00291391
0.00292938
0.00291385
0.00291404
0.00292943
0.00292953
0.00291391
0.00292718
0.00292718
0.00292718
0.00289575
0.00289575
0.00289575
0.00289575
0.00291429
0.00292947
0.00292719
0.00291669
0.00292952
0.00291416
0.00291668
0.00292938
0.00291385
0.00291429
0.00292719
0.00292947
0.00291669
0.00292952
0.00291668
0.00291416
0.0029295
0.0029295
0.00291468
0.00291399
0.00291399
0.0028723
0.00288754
0.00288764
0.00287217
0.00288749
0.0028721
0.00287229
0.00288754
0.00288764
0.00287216
0.00288532
0.00288532
0.00288532
0.00285417
0.00285417
0.00285416
0.00285417
0.00287256
0.00288757
0.00288532
0.00287492
0.00288764
0.00287241
0.00287491
0.0028875
0.00287211
0.00287256
0.00288532
0.00288757
0.00287492
0.00288764
0.00287491
0.00287241
0.0028876
0.0028876
0.00287295
0.00287224
0.00287223
0.00283093
0.00284603
0.00284614
0.00283079
0.002846
0.00283074
0.00283092
0.00284603
0.00284614
0.00283079
0.00284383
0.00284383
0.00284383
0.00281294
0.00281295
0.00281294
0.00281294
0.0028312
0.00284606
0.00284383
0.00283352
0.00284614
0.00283103
0.00283352
0.002846
0.00283074
0.0028312
0.00284383
0.00284606
0.00283352
0.00284614
0.00283352
0.00283103
0.00284609
0.00284609
0.00283158
0.00283086
0.00283086
0.00278991
0.00280489
0.00280499
0.00278978
0.00280486
0.00278973
0.0027899
0.00280489
0.00280499
0.00278978
0.00280269
0.00280269
0.00280269
0.00277206
0.00277206
0.00277206
0.00277206
0.00279019
0.00280491
0.0028027
0.00279247
0.00280499
0.00279001
0.00279247
0.00280486
0.00278973
0.00279019
0.0028027
0.00280491
0.00279247
0.00280499
0.00279247
0.00279001
0.00280494
0.00280494
0.00279057
0.00278983
0.00278983
0.00274921
0.00276409
0.00276418
0.00274908
0.00276405
0.00274904
0.00274921
0.00276409
0.00276418
0.00274909
0.00276189
0.00276189
0.00276189
0.0027315
0.0027315
0.0027315
0.0027315
0.0027495
0.0027641
0.0027619
0.00275175
0.00276418
0.00274931
0.00275175
0.00276406
0.00274904
0.0027495
0.0027619
0.0027641
0.00275175
0.00276418
0.00275175
0.00274931
0.00276412
0.00276412
0.00274988
0.00274913
0.00274913
0.00270881
0.00272359
0.00272368
0.00270869
0.00272356
0.00270867
0.00270881
0.00272359
0.00272368
0.00270869
0.0027214
0.0027214
0.0027214
0.00269122
0.00269122
0.00269122
0.00269122
0.00270911
0.00272359
0.00272141
0.00271133
0.00272367
0.00270891
0.00271133
0.00272356
0.00270865
0.00270911
0.00272141
0.00272359
0.00271133
0.00272367
0.00271133
0.00270891
0.00272362
0.00272362
0.00270949
0.00270874
0.00270874
0.00266869
0.00268338
0.00268346
0.00266858
0.00268334
0.00266854
0.00266869
0.00268338
0.00268346
0.00266858
0.0026812
0.0026812
0.0026812
0.00265122
0.00265122
0.00265122
0.00265122
0.00266899
0.00268338
0.0026812
0.00267119
0.00268345
0.00266878
0.0026712
0.00268335
0.00266854
0.00266899
0.0026812
0.00268338
0.00267119
0.00268345
0.0026712
0.00266878
0.00268341
0.00268341
0.00266938
0.00266862
0.00266862
0.00262883
0.00264343
0.00264351
0.00262873
0.00264341
0.00262869
0.00262883
0.00264344
0.00264351
0.00262873
0.00264126
0.00264126
0.00264126
0.00261148
0.00261148
0.00261148
0.00261148
0.00262913
0.00264343
0.00264127
0.00263132
0.00264349
0.00262892
0.00263132
0.00264341
0.00262869
0.00262913
0.00264127
0.00264343
0.00263132
0.00264349
0.00263132
0.00262892
0.00264346
0.00264346
0.00262953
0.00262876
0.00262876
0.00258922
0.00260374
0.00260381
0.00258912
0.00260372
0.00258908
0.00258922
0.00260374
0.00260381
0.00258912
0.00260158
0.00260158
0.00260158
0.00257197
0.00257197
0.00257197
0.00257197
0.00258951
0.00260373
0.00260158
0.00259169
0.00260379
0.00258931
0.00259169
0.00260372
0.00258908
0.00258951
0.00260158
0.00260373
0.0025917
0.00260379
0.0025917
0.00258931
0.00260377
0.00260377
0.00258992
0.00258915
0.00258915
0.00254983
0.00256428
0.00256435
0.00254974
0.00256427
0.00254971
0.00254983
0.00256429
0.00256435
0.00254974
0.00256213
0.00256213
0.00256213
0.0025327
0.0025327
0.0025327
0.0025327
0.00255011
0.00256427
0.00256213
0.0025523
0.00256432
0.00254992
0.0025523
0.00256427
0.00254971
0.00255011
0.00256213
0.00256427
0.0025523
0.00256432
0.0025523
0.00254992
0.00256431
0.00256431
0.00255055
0.00254977
0.00254977
0.00251067
0.00252505
0.00252511
0.00251058
0.00252503
0.00251055
0.00251067
0.00252505
0.00252511
0.00251058
0.00252291
0.00252291
0.00252291
0.00249364
0.00249364
0.00249364
0.00249364
0.00251093
0.00252503
0.00252291
0.00251313
0.00252507
0.00251075
0.00251313
0.00252504
0.00251055
0.00251093
0.00252291
0.00252503
0.00251313
0.00252507
0.00251313
0.00251075
0.00252507
0.00252507
0.0025114
0.00251061
0.00251061
0.00247172
0.00248603
0.00248608
0.00247163
0.00248602
0.00247161
0.00247172
0.00248603
0.00248608
0.00247163
0.0024839
0.0024839
0.0024839
0.00245479
0.00245479
0.00245479
0.00245479
0.00247197
0.002486
0.0024839
0.00247418
0.00248603
0.00247179
0.00247418
0.00248602
0.00247161
0.00247197
0.0024839
0.002486
0.00247418
0.00248603
0.00247418
0.00247179
0.00248605
0.00248605
0.00247245
0.00247166
0.00247166
0.00243297
0.00244721
0.00244726
0.00243289
0.0024472
0.00243287
0.00243297
0.00244721
0.00244726
0.00243289
0.0024451
0.0024451
0.0024451
0.00241613
0.00241613
0.00241613
0.00241613
0.00243321
0.00244718
0.00244509
0.00243542
0.00244721
0.00243304
0.00243542
0.0024472
0.00243287
0.00243321
0.00244509
0.00244719
0.00243542
0.00244721
0.00243542
0.00243304
0.00244723
0.00244723
0.00243371
0.00243291
0.00243291
0.00239442
0.0024086
0.00240864
0.00239435
0.00240859
0.00239432
0.00239442
0.0024086
0.00240865
0.00239435
0.0024065
0.0024065
0.0024065
0.00237768
0.00237768
0.00237768
0.00237768
0.00239465
0.00240857
0.00240649
0.00239687
0.00240859
0.00239448
0.00239687
0.00240859
0.00239432
0.00239465
0.00240649
0.00240857
0.00239687
0.00240859
0.00239687
0.00239448
0.00240861
0.00240861
0.00239516
0.00239436
0.00239436
0.00235606
0.00237018
0.00237022
0.00235599
0.00237017
0.00235597
0.00235606
0.00237018
0.00237022
0.00235599
0.00236809
0.00236809
0.00236809
0.00233941
0.00233941
0.00233941
0.00233941
0.00235628
0.00237014
0.00236808
0.0023585
0.00237016
0.00235612
0.00235851
0.00237017
0.00235597
0.00235628
0.00236808
0.00237014
0.0023585
0.00237016
0.00235851
0.00235612
0.00237019
0.00237019
0.0023568
0.00235601
0.00235601
0.00231788
0.00233194
0.00233198
0.00231782
0.00233193
0.0023178
0.00231788
0.00233194
0.00233198
0.00231782
0.00232987
0.00232987
0.00232987
0.00230132
0.00230132
0.00230132
0.00230132
0.00231809
0.00233191
0.00232985
0.00232032
0.00233192
0.00231794
0.00232033
0.00233193
0.0023178
0.00231809
0.00232986
0.00233191
0.00232032
0.00233192
0.00232033
0.00231794
0.00233195
0.00233195
0.00231862
0.00231783
0.00231783
0.00227988
0.00229388
0.00229392
0.00227982
0.00229387
0.0022798
0.00227988
0.00229388
0.00229392
0.00227982
0.00229182
0.00229182
0.00229182
0.0022634
0.0022634
0.0022634
0.0022634
0.00228009
0.00229385
0.00229181
0.00228232
0.00229386
0.00227994
0.00228232
0.00229387
0.0022798
0.00228009
0.00229181
0.00229385
0.00228232
0.00229386
0.00228233
0.00227994
0.00229389
0.00229389
0.00228062
0.00227983
0.00227983
0.00224206
0.002256
0.00225603
0.002242
0.00225599
0.00224198
0.00224205
0.002256
0.00225603
0.002242
0.00225395
0.00225395
0.00225395
0.00222566
0.00222566
0.00222566
0.00222566
0.00224225
0.00225596
0.00225394
0.00224449
0.00225597
0.00224211
0.0022445
0.00225599
0.00224198
0.00224225
0.00225394
0.00225596
0.00224448
0.00225597
0.0022445
0.00224211
0.00225601
0.00225601
0.00224279
0.00224201
0.00224201
0.00220439
0.00221828
0.00221831
0.00220434
0.00221828
0.00220432
0.00220439
0.00221828
0.00221831
0.00220434
0.00221625
0.00221625
0.00221625
0.00218808
0.00218808
0.00218808
0.00218808
0.00220459
0.00221825
0.00221623
0.00220682
0.00221825
0.00220445
0.00220683
0.00221828
0.00220432
0.00220459
0.00221623
0.00221825
0.00220682
0.00221825
0.00220683
0.00220445
0.00221829
0.00221829
0.00220513
0.00220435
0.00220435
0.00216689
0.00218073
0.00218076
0.00216684
0.00218072
0.00216682
0.00216689
0.00218073
0.00218076
0.00216684
0.0021787
0.0021787
0.0021787
0.00215065
0.00215065
0.00215065
0.00215065
0.00216708
0.00218069
0.00217869
0.00216932
0.0021807
0.00216695
0.00216933
0.00218072
0.00216682
0.00216708
0.00217869
0.0021807
0.00216931
0.00218069
0.00216933
0.00216695
0.00218074
0.00218074
0.00216763
0.00216685
0.00216685
0.00212955
0.00214333
0.00214336
0.0021295
0.00214333
0.00212948
0.00212955
0.00214333
0.00214336
0.0021295
0.00214132
0.00214132
0.00214132
0.00211338
0.00211338
0.00211338
0.00211338
0.00212973
0.0021433
0.00214131
0.00213196