/*--------------------------------*- C++ -*----------------------------------*\
| =========                 |                                                 |
| \\      /  F ield         | OpenFOAM: The Open Source CFD Toolbox           |
|  \\    /   O peration     | Version:  v2012                                 |
|   \\  /    A nd           | Website:  www.openfoam.com                      |
|    \\/     M anipulation  |                                                 |
\*---------------------------------------------------------------------------*/
FoamFile
{
    version     2.0;
    format      ascii;
    class       volScalarField;
    location    "0.03";
    object      p;
}
// * * * * * * * * * * * * * * * * * * * * * * * * * * * * * * * * * * * * * //

dimensions      [0 2 -2 0 0 0 0];


internalField   nonuniform List<scalar> 
247104
(
2.23059e-06
2.23228e-06
2.23176e-06
2.23184e-06
2.23138e-06
2.23188e-06
2.23182e-06
2.23213e-06
2.23222e-06
2.23244e-06
2.23256e-06
2.2324e-06
2.23221e-06
2.23245e-06
2.23258e-06
2.23241e-06
2.23175e-06
2.23256e-06
2.23236e-06
2.23196e-06
2.23179e-06
2.23201e-06
2.23242e-06
2.23255e-06
2.23158e-06
2.2318e-06
2.23239e-06
2.23196e-06
2.23144e-06
2.23125e-06
2.2315e-06
2.23204e-06
2.23241e-06
2.2316e-06
2.23049e-06
2.23133e-06
2.23218e-06
2.23177e-06
2.23125e-06
2.23106e-06
2.23131e-06
2.23186e-06
2.23219e-06
2.23111e-06
2.23182e-06
2.23242e-06
2.232e-06
2.23149e-06
2.2313e-06
2.23155e-06
2.23207e-06
2.23244e-06
2.23161e-06
2.23179e-06
2.23255e-06
2.2324e-06
2.23202e-06
2.23185e-06
2.23207e-06
2.23246e-06
2.23254e-06
2.23163e-06
2.2321e-06
2.23239e-06
2.23252e-06
2.23239e-06
2.23218e-06
2.23244e-06
2.23254e-06
2.23236e-06
2.23154e-06
2.23157e-06
2.2311e-06
2.23162e-06
2.23164e-06
2.1961e-06
2.19494e-06
2.19981e-06
2.19688e-06
2.1946e-06
2.1953e-06
2.19488e-06
2.20212e-06
2.20034e-06
2.19977e-06
2.19549e-06
2.18963e-06
2.18917e-06
2.18917e-06
2.18963e-06
2.19537e-06
2.19668e-06
2.19687e-06
2.18962e-06
2.18947e-06
2.18941e-06
2.18941e-06
2.18948e-06
2.18964e-06
2.19621e-06
2.20435e-06
2.19609e-06
2.19455e-06
2.18916e-06
2.18941e-06
2.1896e-06
2.1896e-06
2.18942e-06
2.18919e-06
2.19456e-06
2.19973e-06
2.19494e-06
2.19527e-06
2.18917e-06
2.18941e-06
2.1896e-06
2.1896e-06
2.18942e-06
2.18919e-06
2.19499e-06
2.19463e-06
2.19488e-06
2.18962e-06
2.18948e-06
2.18941e-06
2.18942e-06
2.18948e-06
2.18964e-06
2.19489e-06
2.19754e-06
2.2021e-06
2.19535e-06
2.18964e-06
2.18918e-06
2.18917e-06
2.18963e-06
2.1947e-06
2.19665e-06
2.20394e-06
2.20038e-06
2.19667e-06
2.19621e-06
2.19457e-06
2.19498e-06
2.19486e-06
2.19663e-06
2.20488e-06
2.20426e-06
2.19975e-06
2.19464e-06
2.19753e-06
2.2039e-06
2.17747e-06
2.17766e-06
2.1765e-06
2.17457e-06
2.17444e-06
2.17435e-06
2.17457e-06
2.17778e-06
2.17751e-06
2.17653e-06
2.17438e-06
2.17206e-06
2.17176e-06
2.17175e-06
2.17199e-06
2.17672e-06
2.17536e-06
2.17456e-06
2.172e-06
2.17145e-06
2.17131e-06
2.17131e-06
2.17146e-06
2.17209e-06
2.17728e-06
2.17846e-06
2.17745e-06
2.17443e-06
2.17176e-06
2.17131e-06
2.17116e-06
2.17116e-06
2.17133e-06
2.1718e-06
2.17637e-06
2.17741e-06
2.17764e-06
2.17435e-06
2.17176e-06
2.17132e-06
2.17116e-06
2.17116e-06
2.17133e-06
2.1718e-06
2.17589e-06
2.17443e-06
2.17457e-06
2.17201e-06
2.17147e-06
2.17133e-06
2.17132e-06
2.17146e-06
2.17205e-06
2.17691e-06
2.17799e-06
2.17777e-06
2.17671e-06
2.1721e-06
2.1718e-06
2.17176e-06
2.17201e-06
2.17738e-06
2.1764e-06
2.17791e-06
2.17748e-06
2.17533e-06
2.17726e-06
2.17636e-06
2.17586e-06
2.17687e-06
2.1764e-06
2.17886e-06
2.17845e-06
2.17739e-06
2.17442e-06
2.17797e-06
2.17792e-06
2.15274e-06
2.15289e-06
2.15229e-06
2.15054e-06
2.15029e-06
2.15018e-06
2.15061e-06
2.154e-06
2.15356e-06
2.15228e-06
2.15039e-06
2.14746e-06
2.14724e-06
2.14724e-06
2.14748e-06
2.15407e-06
2.15175e-06
2.15055e-06
2.14749e-06
2.14737e-06
2.1473e-06
2.1473e-06
2.14736e-06
2.14745e-06
2.15459e-06
2.15434e-06
2.15276e-06
2.1503e-06
2.14725e-06
2.1473e-06
2.1473e-06
2.1473e-06
2.1473e-06
2.14724e-06
2.15373e-06
2.15299e-06
2.15288e-06
2.15018e-06
2.14725e-06
2.1473e-06
2.1473e-06
2.1473e-06
2.1473e-06
2.14724e-06
2.15315e-06
2.15027e-06
2.1506e-06
2.14748e-06
2.14736e-06
2.1473e-06
2.1473e-06
2.14737e-06
2.14746e-06
2.1543e-06
2.15357e-06
2.15399e-06
2.15406e-06
2.14746e-06
2.14724e-06
2.14725e-06
2.14749e-06
2.15566e-06
2.15338e-06
2.154e-06
2.15351e-06
2.15185e-06
2.15459e-06
2.15371e-06
2.15314e-06
2.15428e-06
2.15341e-06
2.15516e-06
2.15426e-06
2.15294e-06
2.15024e-06
2.15357e-06
2.15402e-06
2.13026e-06
2.13042e-06
2.12974e-06
2.12775e-06
2.12744e-06
2.12735e-06
2.12782e-06
2.13145e-06
2.13071e-06
2.12979e-06
2.12697e-06
2.1234e-06
2.12336e-06
2.12337e-06
2.12341e-06
2.13121e-06
2.12893e-06
2.12774e-06
2.1234e-06
2.1234e-06
2.1234e-06
2.1234e-06
2.12341e-06
2.1234e-06
2.13237e-06
2.13185e-06
2.13023e-06
2.12742e-06
2.12336e-06
2.1234e-06
2.12341e-06
2.12341e-06
2.1234e-06
2.12336e-06
2.13182e-06
2.13044e-06
2.13038e-06
2.12733e-06
2.12336e-06
2.1234e-06
2.12341e-06
2.12341e-06
2.1234e-06
2.12336e-06
2.13126e-06
2.12763e-06
2.1278e-06
2.12341e-06
2.1234e-06
2.1234e-06
2.1234e-06
2.1234e-06
2.1234e-06
2.13222e-06
2.13107e-06
2.13143e-06
2.13119e-06
2.1234e-06
2.12336e-06
2.12336e-06
2.12341e-06
2.1334e-06
2.13085e-06
2.13144e-06
2.13078e-06
2.12894e-06
2.13237e-06
2.13181e-06
2.13128e-06
2.13223e-06
2.13085e-06
2.13224e-06
2.13186e-06
2.13044e-06
2.12767e-06
2.13107e-06
2.13149e-06
2.10742e-06
2.10756e-06
2.10683e-06
2.10485e-06
2.10442e-06
2.10432e-06
2.10489e-06
2.1087e-06
2.10802e-06
2.10698e-06
2.10384e-06
2.09994e-06
2.09994e-06
2.09994e-06
2.09996e-06
2.1082e-06
2.10613e-06
2.10485e-06
2.09996e-06
2.09995e-06
2.09996e-06
2.09996e-06
2.09996e-06
2.09997e-06
2.10962e-06
2.10912e-06
2.1074e-06
2.10441e-06
2.09994e-06
2.09995e-06
2.09996e-06
2.09996e-06
2.09996e-06
2.09995e-06
2.10914e-06
2.10759e-06
2.10755e-06
2.10431e-06
2.09994e-06
2.09995e-06
2.09996e-06
2.09996e-06
2.09996e-06
2.09995e-06
2.10858e-06
2.10476e-06
2.10488e-06
2.09996e-06
2.09996e-06
2.09996e-06
2.09996e-06
2.09996e-06
2.09996e-06
2.10952e-06
2.10825e-06
2.10869e-06
2.10821e-06
2.09995e-06
2.09994e-06
2.09994e-06
2.09997e-06
2.11063e-06
2.10808e-06
2.10874e-06
2.10799e-06
2.10612e-06
2.1096e-06
2.10922e-06
2.10859e-06
2.10955e-06
2.10809e-06
2.10948e-06
2.10913e-06
2.10758e-06
2.10476e-06
2.10826e-06
2.10875e-06
2.08433e-06
2.08448e-06
2.08375e-06
2.08174e-06
2.08125e-06
2.08121e-06
2.08176e-06
2.08565e-06
2.08494e-06
2.08379e-06
2.08069e-06
2.07668e-06
2.07668e-06
2.07668e-06
2.07669e-06
2.08508e-06
2.08305e-06
2.08173e-06
2.07668e-06
2.07668e-06
2.07668e-06
2.07669e-06
2.07669e-06
2.0767e-06
2.08657e-06
2.08606e-06
2.08432e-06
2.08126e-06
2.07668e-06
2.07668e-06
2.07669e-06
2.07669e-06
2.07669e-06
2.07669e-06
2.08614e-06
2.08451e-06
2.08447e-06
2.0812e-06
2.07668e-06
2.07668e-06
2.07669e-06
2.07669e-06
2.07669e-06
2.07669e-06
2.08558e-06
2.08168e-06
2.08176e-06
2.07668e-06
2.07668e-06
2.07669e-06
2.07669e-06
2.07669e-06
2.0767e-06
2.08646e-06
2.08516e-06
2.08563e-06
2.08506e-06
2.07668e-06
2.07669e-06
2.07668e-06
2.07669e-06
2.08755e-06
2.08498e-06
2.08567e-06
2.08492e-06
2.08302e-06
2.08653e-06
2.08618e-06
2.08555e-06
2.08648e-06
2.08501e-06
2.08639e-06
2.08606e-06
2.0845e-06
2.08169e-06
2.08516e-06
2.08568e-06
2.06116e-06
2.06132e-06
2.06059e-06
2.05857e-06
2.05809e-06
2.05802e-06
2.05858e-06
2.06249e-06
2.06179e-06
2.06064e-06
2.0575e-06
2.05347e-06
2.05346e-06
2.05346e-06
2.05348e-06
2.06189e-06
2.05988e-06
2.05857e-06
2.05347e-06
2.05347e-06
2.05347e-06
2.05347e-06
2.05347e-06
2.05347e-06
2.0634e-06
2.06291e-06
2.06117e-06
2.0581e-06
2.05347e-06
2.05347e-06
2.05347e-06
2.05347e-06
2.05347e-06
2.05347e-06
2.06297e-06
2.06134e-06
2.06132e-06
2.05804e-06
2.05347e-06
2.05347e-06
2.05347e-06
2.05347e-06
2.05347e-06
2.05347e-06
2.06242e-06
2.05851e-06
2.05858e-06
2.05347e-06
2.05347e-06
2.05347e-06
2.05347e-06
2.05347e-06
2.05347e-06
2.0633e-06
2.062e-06
2.06249e-06
2.06189e-06
2.05348e-06
2.05347e-06
2.05347e-06
2.05347e-06
2.06441e-06
2.06183e-06
2.06251e-06
2.0618e-06
2.05986e-06
2.0634e-06
2.06299e-06
2.06244e-06
2.06327e-06
2.06183e-06
2.06323e-06
2.06292e-06
2.06134e-06
2.05853e-06
2.062e-06
2.06253e-06
2.03798e-06
2.03813e-06
2.0374e-06
2.03539e-06
2.03488e-06
2.03484e-06
2.03539e-06
2.0393e-06
2.03859e-06
2.03746e-06
2.0343e-06
2.03026e-06
2.03026e-06
2.03026e-06
2.03026e-06
2.03869e-06
2.03669e-06
2.03539e-06
2.03026e-06
2.03026e-06
2.03026e-06
2.03026e-06
2.03026e-06
2.03026e-06
2.0402e-06
2.0397e-06
2.03798e-06
2.0349e-06
2.03026e-06
2.03026e-06
2.03026e-06
2.03026e-06
2.03026e-06
2.03026e-06
2.03978e-06
2.03814e-06
2.03813e-06
2.03485e-06
2.03026e-06
2.03026e-06
2.03026e-06
2.03026e-06
2.03026e-06
2.03026e-06
2.03923e-06
2.03531e-06
2.03541e-06
2.03026e-06
2.03026e-06
2.03026e-06
2.03026e-06
2.03026e-06
2.03026e-06
2.0401e-06
2.0388e-06
2.0393e-06
2.03868e-06
2.03026e-06
2.03026e-06
2.03026e-06
2.03026e-06
2.04121e-06
2.03865e-06
2.03932e-06
2.03861e-06
2.03667e-06
2.04022e-06
2.03979e-06
2.03924e-06
2.0401e-06
2.03864e-06
2.04004e-06
2.03972e-06
2.03815e-06
2.03534e-06
2.03881e-06
2.03934e-06
2.01478e-06
2.01493e-06
2.0142e-06
2.01219e-06
2.01167e-06
2.01163e-06
2.01219e-06
2.0161e-06
2.01539e-06
2.01427e-06
2.01112e-06
2.00706e-06
2.00706e-06
2.00706e-06
2.00705e-06
2.0155e-06
2.0135e-06
2.0122e-06
2.00706e-06
2.00706e-06
2.00706e-06
2.00706e-06
2.00705e-06
2.00705e-06
2.017e-06
2.0165e-06
2.01478e-06
2.01171e-06
2.00706e-06
2.00706e-06
2.00706e-06
2.00706e-06
2.00705e-06
2.00705e-06
2.01658e-06
2.01494e-06
2.01494e-06
2.01165e-06
2.00706e-06
2.00706e-06
2.00706e-06
2.00706e-06
2.00705e-06
2.00705e-06
2.01603e-06
2.01211e-06
2.01221e-06
2.00706e-06
2.00706e-06
2.00706e-06
2.00706e-06
2.00705e-06
2.00705e-06
2.0169e-06
2.0156e-06
2.0161e-06
2.01548e-06
2.00706e-06
2.00706e-06
2.00706e-06
2.00705e-06
2.01802e-06
2.01544e-06
2.01612e-06
2.01541e-06
2.01348e-06
2.01703e-06
2.0166e-06
2.01607e-06
2.0169e-06
2.01544e-06
2.01684e-06
2.01652e-06
2.01495e-06
2.01215e-06
2.01561e-06
2.01614e-06
1.99158e-06
1.99173e-06
1.991e-06
1.98898e-06
1.98847e-06
1.98843e-06
1.98898e-06
1.99288e-06
1.99219e-06
1.99106e-06
1.9879e-06
1.98385e-06
1.98385e-06
1.98385e-06
1.98384e-06
1.9923e-06
1.99029e-06
1.98899e-06
1.98385e-06
1.98385e-06
1.98385e-06
1.98385e-06
1.98385e-06
1.98385e-06
1.9938e-06
1.9933e-06
1.99158e-06
1.9885e-06
1.98385e-06
1.98385e-06
1.98385e-06
1.98385e-06
1.98385e-06
1.98385e-06
1.99338e-06
1.99174e-06
1.99173e-06
1.98845e-06
1.98385e-06
1.98385e-06
1.98385e-06
1.98385e-06
1.98385e-06
1.98385e-06
1.99283e-06
1.98891e-06
1.989e-06
1.98385e-06
1.98385e-06
1.98385e-06
1.98385e-06
1.98385e-06
1.98385e-06
1.99369e-06
1.9924e-06
1.9929e-06
1.99228e-06
1.98385e-06
1.98385e-06
1.98385e-06
1.98385e-06
1.99481e-06
1.99224e-06
1.99292e-06
1.99221e-06
1.99027e-06
1.99382e-06
1.9934e-06
1.99286e-06
1.99369e-06
1.99224e-06
1.99363e-06
1.99332e-06
1.99175e-06
1.98894e-06
1.99241e-06
1.99293e-06
1.96838e-06
1.96853e-06
1.96792e-06
1.96579e-06
1.96528e-06
1.96524e-06
1.96578e-06
1.96968e-06
1.96898e-06
1.96786e-06
1.9647e-06
1.96065e-06
1.96065e-06
1.96065e-06
1.96064e-06
1.96908e-06
1.96708e-06
1.96579e-06
1.96065e-06
1.96065e-06
1.96065e-06
1.96065e-06
1.96065e-06
1.96065e-06
1.97059e-06
1.97009e-06
1.96837e-06
1.9653e-06
1.96065e-06
1.96065e-06
1.96065e-06
1.96065e-06
1.96065e-06
1.96065e-06
1.97017e-06
1.96853e-06
1.96853e-06
1.96524e-06
1.96065e-06
1.96065e-06
1.96065e-06
1.96065e-06
1.96065e-06
1.96065e-06
1.96962e-06
1.96571e-06
1.9658e-06
1.96065e-06
1.96065e-06
1.96065e-06
1.96065e-06
1.96065e-06
1.96065e-06
1.97049e-06
1.9692e-06
1.96969e-06
1.96908e-06
1.96065e-06
1.96065e-06
1.96065e-06
1.96065e-06
1.97161e-06
1.96904e-06
1.96971e-06
1.969e-06
1.96707e-06
1.97062e-06
1.9702e-06
1.96966e-06
1.97048e-06
1.96903e-06
1.97043e-06
1.97012e-06
1.96854e-06
1.96574e-06
1.9692e-06
1.96973e-06
1.94517e-06
1.94533e-06
1.94472e-06
1.94258e-06
1.94208e-06
1.94203e-06
1.94258e-06
1.94647e-06
1.94578e-06
1.94466e-06
1.94149e-06
1.93745e-06
1.93745e-06
1.93745e-06
1.93744e-06
1.94587e-06
1.94387e-06
1.94258e-06
1.93745e-06
1.93745e-06
1.93745e-06
1.93744e-06
1.93744e-06
1.93744e-06
1.94739e-06
1.94689e-06
1.94517e-06
1.94209e-06
1.93745e-06
1.93745e-06
1.93744e-06
1.93744e-06
1.93744e-06
1.93744e-06
1.94697e-06
1.94533e-06
1.94533e-06
1.94204e-06
1.93745e-06
1.93744e-06
1.93744e-06
1.93744e-06
1.93744e-06
1.93744e-06
1.94642e-06
1.9425e-06
1.9426e-06
1.93745e-06
1.93744e-06
1.93744e-06
1.93744e-06
1.93744e-06
1.93744e-06
1.94729e-06
1.94599e-06
1.94649e-06
1.94588e-06
1.93744e-06
1.93744e-06
1.93744e-06
1.93744e-06
1.94841e-06
1.94583e-06
1.94651e-06
1.9458e-06
1.94387e-06
1.94742e-06
1.947e-06
1.94646e-06
1.94728e-06
1.94583e-06
1.94723e-06
1.94691e-06
1.94534e-06
1.94254e-06
1.946e-06
1.94653e-06
1.92197e-06
1.92212e-06
1.92152e-06
1.91938e-06
1.91887e-06
1.91882e-06
1.91938e-06
1.92328e-06
1.92257e-06
1.92145e-06
1.91829e-06
1.91424e-06
1.91424e-06
1.91424e-06
1.91424e-06
1.92268e-06
1.92067e-06
1.91938e-06
1.91424e-06
1.91424e-06
1.91424e-06
1.91424e-06
1.91424e-06
1.91424e-06
1.92418e-06
1.92369e-06
1.92197e-06
1.91889e-06
1.91424e-06
1.91424e-06
1.91424e-06
1.91424e-06
1.91424e-06
1.91424e-06
1.92377e-06
1.92213e-06
1.92212e-06
1.91883e-06
1.91424e-06
1.91424e-06
1.91424e-06
1.91424e-06
1.91424e-06
1.91424e-06
1.92322e-06
1.9193e-06
1.91939e-06
1.91424e-06
1.91424e-06
1.91424e-06
1.91424e-06
1.91424e-06
1.91424e-06
1.92408e-06
1.92279e-06
1.92329e-06
1.92268e-06
1.91424e-06
1.91424e-06
1.91424e-06
1.91424e-06
1.92521e-06
1.92263e-06
1.92331e-06
1.9226e-06
1.92066e-06
1.92421e-06
1.9238e-06
1.92326e-06
1.92408e-06
1.92263e-06
1.92402e-06
1.92371e-06
1.92214e-06
1.91933e-06
1.9228e-06
1.92333e-06
1.89876e-06
1.89892e-06
1.89832e-06
1.89617e-06
1.89567e-06
1.89562e-06
1.89618e-06
1.90006e-06
1.89936e-06
1.89825e-06
1.89509e-06
1.89104e-06
1.89104e-06
1.89104e-06
1.89104e-06
1.89947e-06
1.89747e-06
1.89617e-06
1.89104e-06
1.89104e-06
1.89104e-06
1.89104e-06
1.89104e-06
1.89104e-06
1.90098e-06
1.90049e-06
1.89876e-06
1.89568e-06
1.89104e-06
1.89104e-06
1.89104e-06
1.89104e-06
1.89104e-06
1.89104e-06
1.90057e-06
1.89893e-06
1.89892e-06
1.89563e-06
1.89104e-06
1.89104e-06
1.89104e-06
1.89104e-06
1.89104e-06
1.89104e-06
1.90002e-06
1.8961e-06
1.89619e-06
1.89104e-06
1.89104e-06
1.89104e-06
1.89104e-06
1.89104e-06
1.89104e-06
1.90088e-06
1.89959e-06
1.90009e-06
1.89947e-06
1.89104e-06
1.89104e-06
1.89104e-06
1.89104e-06
1.902e-06
1.89943e-06
1.90011e-06
1.8994e-06
1.89746e-06
1.90101e-06
1.9006e-06
1.90006e-06
1.90088e-06
1.89943e-06
1.90082e-06
1.90051e-06
1.89894e-06
1.89613e-06
1.8996e-06
1.90013e-06
1.87556e-06
1.87571e-06
1.87511e-06
1.87297e-06
1.87246e-06
1.87242e-06
1.87298e-06
1.87686e-06
1.87616e-06
1.87504e-06
1.87188e-06
1.86783e-06
1.86783e-06
1.86783e-06
1.86783e-06
1.87626e-06
1.87426e-06
1.87297e-06
1.86783e-06
1.86783e-06
1.86783e-06
1.86783e-06
1.86783e-06
1.86783e-06
1.87778e-06
1.87728e-06
1.87556e-06
1.87248e-06
1.86783e-06
1.86783e-06
1.86783e-06
1.86783e-06
1.86783e-06
1.86783e-06
1.87736e-06
1.87572e-06
1.87572e-06
1.87243e-06
1.86783e-06
1.86783e-06
1.86783e-06
1.86783e-06
1.86783e-06
1.86783e-06
1.87681e-06
1.87289e-06
1.87299e-06
1.86783e-06
1.86783e-06
1.86783e-06
1.86783e-06
1.86783e-06
1.86783e-06
1.87768e-06
1.87638e-06
1.87688e-06
1.87627e-06
1.86783e-06
1.86783e-06
1.86783e-06
1.86783e-06
1.8788e-06
1.87623e-06
1.8769e-06
1.87619e-06
1.87426e-06
1.87781e-06
1.87739e-06
1.87685e-06
1.87768e-06
1.87622e-06
1.87762e-06
1.87731e-06
1.87574e-06
1.8729e-06
1.8764e-06
1.87693e-06
1.85236e-06
1.85251e-06
1.85187e-06
1.84978e-06
1.84926e-06
1.84922e-06
1.84977e-06
1.85365e-06
1.85296e-06
1.85184e-06
1.84868e-06
1.84463e-06
1.84463e-06
1.84463e-06
1.84463e-06
1.85306e-06
1.85106e-06
1.84977e-06
1.84463e-06
1.84463e-06
1.84463e-06
1.84463e-06
1.84463e-06
1.84463e-06
1.85457e-06
1.85408e-06
1.85236e-06
1.84928e-06
1.84463e-06
1.84463e-06
1.84463e-06
1.84463e-06
1.84463e-06
1.84463e-06
1.85416e-06
1.85252e-06
1.85251e-06
1.84922e-06
1.84463e-06
1.84463e-06
1.84463e-06
1.84463e-06
1.84463e-06
1.84463e-06
1.85361e-06
1.84969e-06
1.84978e-06
1.84463e-06
1.84463e-06
1.84463e-06
1.84463e-06
1.84463e-06
1.84463e-06
1.85447e-06
1.85318e-06
1.85368e-06
1.85307e-06
1.84463e-06
1.84463e-06
1.84463e-06
1.84463e-06
1.8556e-06
1.85302e-06
1.8537e-06
1.85299e-06
1.85105e-06
1.85461e-06
1.85419e-06
1.85365e-06
1.85446e-06
1.85302e-06
1.85441e-06
1.8541e-06
1.85253e-06
1.84972e-06
1.85319e-06
1.85371e-06
1.82915e-06
1.82931e-06
1.8287e-06
1.82657e-06
1.82606e-06
1.82601e-06
1.82657e-06
1.83045e-06
1.82976e-06
1.82864e-06
1.82548e-06
1.82143e-06
1.82142e-06
1.82143e-06
1.82143e-06
1.82985e-06
1.82786e-06
1.82656e-06
1.82143e-06
1.82143e-06
1.82143e-06
1.82143e-06
1.82143e-06
1.82143e-06
1.83137e-06
1.83088e-06
1.82915e-06
1.82608e-06
1.82143e-06
1.82143e-06
1.82143e-06
1.82143e-06
1.82143e-06
1.82143e-06
1.83096e-06
1.82932e-06
1.82931e-06
1.82602e-06
1.82143e-06
1.82143e-06
1.82143e-06
1.82143e-06
1.82143e-06
1.82143e-06
1.83041e-06
1.82649e-06
1.82658e-06
1.82143e-06
1.82143e-06
1.82143e-06
1.82143e-06
1.82143e-06
1.82143e-06
1.83127e-06
1.82998e-06
1.83048e-06
1.82986e-06
1.82143e-06
1.82143e-06
1.82143e-06
1.82143e-06
1.8324e-06
1.82982e-06
1.8305e-06
1.82979e-06
1.82785e-06
1.8314e-06
1.83099e-06
1.83044e-06
1.83127e-06
1.82982e-06
1.83121e-06
1.8309e-06
1.82933e-06
1.82652e-06
1.82999e-06
1.83051e-06
1.80595e-06
1.80611e-06
1.8055e-06
1.80337e-06
1.80286e-06
1.80282e-06
1.80337e-06
1.80725e-06
1.80656e-06
1.80544e-06
1.80228e-06
1.79823e-06
1.79823e-06
1.79823e-06
1.79823e-06
1.80665e-06
1.80466e-06
1.80336e-06
1.79823e-06
1.79823e-06
1.79823e-06
1.79823e-06
1.79823e-06
1.79823e-06
1.80817e-06
1.80768e-06
1.80595e-06
1.80288e-06
1.79823e-06
1.79823e-06
1.79823e-06
1.79823e-06
1.79823e-06
1.79823e-06
1.80776e-06
1.80612e-06
1.80611e-06
1.80282e-06
1.79823e-06
1.79823e-06
1.79823e-06
1.79823e-06
1.79823e-06
1.79823e-06
1.80721e-06
1.80329e-06
1.80338e-06
1.79823e-06
1.79823e-06
1.79823e-06
1.79823e-06
1.79823e-06
1.79823e-06
1.80807e-06
1.80678e-06
1.80727e-06
1.80666e-06
1.79823e-06
1.79823e-06
1.79823e-06
1.79823e-06
1.8092e-06
1.80662e-06
1.8073e-06
1.80659e-06
1.80465e-06
1.8082e-06
1.80778e-06
1.80724e-06
1.80807e-06
1.80662e-06
1.80801e-06
1.8077e-06
1.80613e-06
1.80333e-06
1.80679e-06
1.80732e-06
1.78276e-06
1.78291e-06
1.78231e-06
1.78016e-06
1.77966e-06
1.77962e-06
1.78017e-06
1.78405e-06
1.78336e-06
1.78224e-06
1.77908e-06
1.77503e-06
1.77503e-06
1.77503e-06
1.77503e-06
1.78346e-06
1.78146e-06
1.78016e-06
1.77503e-06
1.77503e-06
1.77503e-06
1.77503e-06
1.77503e-06
1.77503e-06
1.78497e-06
1.78448e-06
1.78275e-06
1.77967e-06
1.77503e-06
1.77503e-06
1.77503e-06
1.77503e-06
1.77503e-06
1.77503e-06
1.78456e-06
1.78292e-06
1.78291e-06
1.77962e-06
1.77503e-06
1.77503e-06
1.77503e-06
1.77503e-06
1.77503e-06
1.77503e-06
1.78401e-06
1.78009e-06
1.78018e-06
1.77503e-06
1.77503e-06
1.77503e-06
1.77503e-06
1.77503e-06
1.77503e-06
1.78487e-06
1.78358e-06
1.78408e-06
1.78346e-06
1.77503e-06
1.77503e-06
1.77503e-06
1.77503e-06
1.786e-06
1.78342e-06
1.7841e-06
1.78339e-06
1.78145e-06
1.785e-06
1.78458e-06
1.78404e-06
1.78486e-06
1.78342e-06
1.78481e-06
1.7845e-06
1.78293e-06
1.78013e-06
1.78359e-06
1.78411e-06
1.75955e-06
1.75971e-06
1.7591e-06
1.75696e-06
1.75645e-06
1.7564e-06
1.75698e-06
1.76085e-06
1.76015e-06
1.75904e-06
1.75588e-06
1.75183e-06
1.75183e-06
1.75183e-06
1.75183e-06
1.76026e-06
1.75826e-06
1.75696e-06
1.75183e-06
1.75183e-06
1.75183e-06
1.75183e-06
1.75183e-06
1.75183e-06
1.76177e-06
1.76128e-06
1.75955e-06
1.75648e-06
1.75183e-06
1.75183e-06
1.75183e-06
1.75183e-06
1.75183e-06
1.75183e-06
1.76136e-06
1.75972e-06
1.75971e-06
1.75642e-06
1.75183e-06
1.75183e-06
1.75183e-06
1.75183e-06
1.75183e-06
1.75183e-06
1.76081e-06
1.75689e-06
1.75698e-06
1.75183e-06
1.75183e-06
1.75183e-06
1.75183e-06
1.75183e-06
1.75183e-06
1.76167e-06
1.76038e-06
1.76088e-06
1.76026e-06
1.75183e-06
1.75183e-06
1.75183e-06
1.75183e-06
1.7628e-06
1.76022e-06
1.7609e-06
1.76019e-06
1.75825e-06
1.7618e-06
1.76138e-06
1.76084e-06
1.76166e-06
1.76022e-06
1.76161e-06
1.7613e-06
1.75973e-06
1.75692e-06
1.76039e-06
1.76091e-06
1.73635e-06
1.7365e-06
1.7359e-06
1.73376e-06
1.73325e-06
1.7332e-06
1.73377e-06
1.73764e-06
1.73695e-06
1.73584e-06
1.73268e-06
1.72863e-06
1.72863e-06
1.72863e-06
1.72863e-06
1.73706e-06
1.73506e-06
1.73376e-06
1.72863e-06
1.72863e-06
1.72863e-06
1.72863e-06
1.72863e-06
1.72863e-06
1.73857e-06
1.73808e-06
1.73635e-06
1.73327e-06
1.72863e-06
1.72863e-06
1.72863e-06
1.72863e-06
1.72863e-06
1.72863e-06
1.73815e-06
1.73651e-06
1.73651e-06
1.73322e-06
1.72863e-06
1.72863e-06
1.72863e-06
1.72863e-06
1.72863e-06
1.72863e-06
1.7376e-06
1.73369e-06
1.73378e-06
1.72863e-06
1.72863e-06
1.72863e-06
1.72863e-06
1.72863e-06
1.72863e-06
1.73847e-06
1.73718e-06
1.73767e-06
1.73706e-06
1.72863e-06
1.72863e-06
1.72863e-06
1.72863e-06
1.73959e-06
1.73702e-06
1.73769e-06
1.73698e-06
1.73505e-06
1.7386e-06
1.73818e-06
1.73763e-06
1.73846e-06
1.73702e-06
1.73841e-06
1.7381e-06
1.73653e-06
1.73372e-06
1.73718e-06
1.73771e-06
1.71315e-06
1.7133e-06
1.7127e-06
1.71056e-06
1.71005e-06
1.71e-06
1.71057e-06
1.71444e-06
1.71375e-06
1.71263e-06
1.70948e-06
1.70543e-06
1.70543e-06
1.70543e-06
1.70543e-06
1.71386e-06
1.71186e-06
1.71056e-06
1.70543e-06
1.70543e-06
1.70543e-06
1.70543e-06
1.70543e-06
1.70543e-06
1.71537e-06
1.71487e-06
1.71315e-06
1.71007e-06
1.70543e-06
1.70543e-06
1.70543e-06
1.70543e-06
1.70543e-06
1.70543e-06
1.71495e-06
1.71331e-06
1.71331e-06
1.71002e-06
1.70543e-06
1.70543e-06
1.70543e-06
1.70543e-06
1.70543e-06
1.70543e-06
1.7144e-06
1.71049e-06
1.71058e-06
1.70543e-06
1.70543e-06
1.70543e-06
1.70543e-06
1.70543e-06
1.70543e-06
1.71527e-06
1.71398e-06
1.71447e-06
1.71386e-06
1.70543e-06
1.70543e-06
1.70543e-06
1.70543e-06
1.71639e-06
1.71382e-06
1.71449e-06
1.71378e-06
1.71185e-06
1.7154e-06
1.71498e-06
1.71443e-06
1.71526e-06
1.71382e-06
1.71521e-06
1.7149e-06
1.71332e-06
1.71052e-06
1.71398e-06
1.71451e-06
1.68995e-06
1.6901e-06
1.6895e-06
1.68736e-06
1.68685e-06
1.6868e-06
1.68737e-06
1.69125e-06
1.69055e-06
1.68943e-06
1.68627e-06
1.68222e-06
1.68223e-06
1.68223e-06
1.68223e-06
1.69065e-06
1.68865e-06
1.68736e-06
1.68223e-06
1.68223e-06
1.68223e-06
1.68223e-06
1.68223e-06
1.68223e-06
1.69217e-06
1.69167e-06
1.68995e-06
1.68687e-06
1.68223e-06
1.68223e-06
1.68223e-06
1.68223e-06
1.68223e-06
1.68223e-06
1.69175e-06
1.69011e-06
1.69011e-06
1.68682e-06
1.68223e-06
1.68223e-06
1.68223e-06
1.68223e-06
1.68223e-06
1.68223e-06
1.6912e-06
1.68728e-06
1.68738e-06
1.68223e-06
1.68223e-06
1.68223e-06
1.68223e-06
1.68223e-06
1.68222e-06
1.69207e-06
1.69077e-06
1.69127e-06
1.69066e-06
1.68223e-06
1.68223e-06
1.68223e-06
1.68223e-06
1.69319e-06
1.69062e-06
1.69129e-06
1.69058e-06
1.68865e-06
1.6922e-06
1.69178e-06
1.69123e-06
1.69206e-06
1.69061e-06
1.69201e-06
1.69169e-06
1.69012e-06
1.68731e-06
1.69078e-06
1.69131e-06
1.66675e-06
1.6669e-06
1.6663e-06
1.66416e-06
1.66365e-06
1.6636e-06
1.66417e-06
1.66802e-06
1.66733e-06
1.66623e-06
1.66307e-06
1.65902e-06
1.65902e-06
1.65902e-06
1.65902e-06
1.66745e-06
1.66545e-06
1.66416e-06
1.65902e-06
1.65902e-06
1.65902e-06
1.65902e-06
1.65902e-06
1.65902e-06
1.66897e-06
1.66847e-06
1.66675e-06
1.66367e-06
1.65902e-06
1.65902e-06
1.65902e-06
1.65902e-06
1.65902e-06
1.65902e-06
1.66855e-06
1.66691e-06
1.6669e-06
1.66361e-06
1.65902e-06
1.65902e-06
1.65902e-06
1.65902e-06
1.65902e-06
1.65902e-06
1.668e-06
1.66408e-06
1.66417e-06
1.65902e-06
1.65902e-06
1.65902e-06
1.65902e-06
1.65902e-06
1.65902e-06
1.66887e-06
1.66757e-06
1.66807e-06
1.66746e-06
1.65902e-06
1.65902e-06
1.65902e-06
1.65902e-06
1.66999e-06
1.66741e-06
1.66809e-06
1.66738e-06
1.66544e-06
1.669e-06
1.66858e-06
1.66803e-06
1.66885e-06
1.66741e-06
1.66881e-06
1.66849e-06
1.66692e-06
1.66411e-06
1.66758e-06
1.66811e-06
1.64355e-06
1.6437e-06
1.64309e-06
1.64096e-06
1.64047e-06
1.6404e-06
1.64097e-06
1.64485e-06
1.64414e-06
1.64302e-06
1.63987e-06
1.63582e-06
1.63582e-06
1.63582e-06
1.63582e-06
1.64425e-06
1.64225e-06
1.64096e-06
1.63582e-06
1.63582e-06
1.63582e-06
1.63582e-06
1.63582e-06
1.63582e-06
1.64576e-06
1.64527e-06
1.64354e-06
1.64046e-06
1.63582e-06
1.63582e-06
1.63582e-06
1.63582e-06
1.63582e-06
1.63582e-06
1.64535e-06
1.64371e-06
1.6437e-06
1.64041e-06
1.63582e-06
1.63582e-06
1.63582e-06
1.63582e-06
1.63582e-06
1.63582e-06
1.6448e-06
1.64088e-06
1.64097e-06
1.63582e-06
1.63582e-06
1.63582e-06
1.63582e-06
1.63582e-06
1.63582e-06
1.64566e-06
1.64437e-06
1.64487e-06
1.64425e-06
1.63582e-06
1.63582e-06
1.63582e-06
1.63582e-06
1.64679e-06
1.64421e-06
1.64489e-06
1.64418e-06
1.64224e-06
1.64579e-06
1.64537e-06
1.64483e-06
1.64565e-06
1.64421e-06
1.6456e-06
1.64529e-06
1.64372e-06
1.64091e-06
1.64438e-06
1.6449e-06
1.62035e-06
1.6205e-06
1.61989e-06
1.61775e-06
1.61726e-06
1.6172e-06
1.61777e-06
1.62165e-06
1.62094e-06
1.61982e-06
1.61666e-06
1.61262e-06
1.61262e-06
1.61262e-06
1.61262e-06
1.62105e-06
1.61905e-06
1.61775e-06
1.61262e-06
1.61262e-06
1.61262e-06
1.61262e-06
1.61262e-06
1.61262e-06
1.62256e-06
1.62207e-06
1.62034e-06
1.61726e-06
1.61262e-06
1.61262e-06
1.61262e-06
1.61262e-06
1.61262e-06
1.61262e-06
1.62215e-06
1.6205e-06
1.6205e-06
1.61721e-06
1.61262e-06
1.61262e-06
1.61262e-06
1.61262e-06
1.61262e-06
1.61262e-06
1.6216e-06
1.61768e-06
1.61777e-06
1.61262e-06
1.61262e-06
1.61262e-06
1.61262e-06
1.61262e-06
1.61262e-06
1.62246e-06
1.62117e-06
1.62166e-06
1.62105e-06
1.61262e-06
1.61262e-06
1.61262e-06
1.61262e-06
1.62359e-06
1.62101e-06
1.62169e-06
1.62097e-06
1.61904e-06
1.62259e-06
1.62217e-06
1.62163e-06
1.62245e-06
1.62101e-06
1.6224e-06
1.62209e-06
1.62052e-06
1.61771e-06
1.62118e-06
1.6217e-06
1.59715e-06
1.59729e-06
1.59668e-06
1.59455e-06
1.59406e-06
1.59399e-06
1.59456e-06
1.59845e-06
1.59774e-06
1.59662e-06
1.59346e-06
1.58941e-06
1.58941e-06
1.58941e-06
1.58942e-06
1.59784e-06
1.59584e-06
1.59455e-06
1.58942e-06
1.58942e-06
1.58942e-06
1.58942e-06
1.58942e-06
1.58942e-06
1.59936e-06
1.59886e-06
1.59713e-06
1.59406e-06
1.58942e-06
1.58941e-06
1.58942e-06
1.58942e-06
1.58942e-06
1.58942e-06
1.59894e-06
1.5973e-06
1.59729e-06
1.594e-06
1.58941e-06
1.58942e-06
1.58942e-06
1.58942e-06
1.58942e-06
1.58942e-06
1.59839e-06
1.59447e-06
1.59456e-06
1.58941e-06
1.58941e-06
1.58942e-06
1.58942e-06
1.58942e-06
1.58942e-06
1.59926e-06
1.59796e-06
1.59846e-06
1.59785e-06
1.58941e-06
1.58941e-06
1.58942e-06
1.58941e-06
1.60038e-06
1.59781e-06
1.59848e-06
1.59777e-06
1.59584e-06
1.59939e-06
1.59897e-06
1.59842e-06
1.59925e-06
1.5978e-06
1.5992e-06
1.59888e-06
1.59731e-06
1.5945e-06
1.59797e-06
1.5985e-06
1.57394e-06
1.57409e-06
1.57347e-06
1.57135e-06
1.57086e-06
1.57079e-06
1.57136e-06
1.57525e-06
1.57454e-06
1.57342e-06
1.57026e-06
1.5662e-06
1.56621e-06
1.56621e-06
1.56621e-06
1.57464e-06
1.57264e-06
1.57134e-06
1.56621e-06
1.56621e-06
1.56621e-06
1.56621e-06
1.56621e-06
1.56621e-06
1.57616e-06
1.57566e-06
1.57393e-06
1.57086e-06
1.56621e-06
1.56621e-06
1.56621e-06
1.56621e-06
1.56621e-06
1.56621e-06
1.57574e-06
1.5741e-06
1.57409e-06
1.5708e-06
1.56621e-06
1.56621e-06
1.56621e-06
1.56621e-06
1.56621e-06
1.56621e-06
1.57519e-06
1.57127e-06
1.57136e-06
1.56621e-06
1.56621e-06
1.56621e-06
1.56621e-06
1.56621e-06
1.56621e-06
1.57606e-06
1.57476e-06
1.57526e-06
1.57465e-06
1.56621e-06
1.56621e-06
1.56621e-06
1.56621e-06
1.57718e-06
1.57461e-06
1.57528e-06
1.57457e-06
1.57263e-06
1.57619e-06
1.57577e-06
1.57522e-06
1.57604e-06
1.5746e-06
1.576e-06
1.57568e-06
1.57411e-06
1.5713e-06
1.57477e-06
1.5753e-06
1.55074e-06
1.55089e-06
1.55028e-06
1.54814e-06
1.54765e-06
1.54759e-06
1.54816e-06
1.55205e-06
1.55134e-06
1.55022e-06
1.54706e-06
1.54301e-06
1.54301e-06
1.54301e-06
1.54301e-06
1.55144e-06
1.54944e-06
1.54815e-06
1.54301e-06
1.54301e-06
1.54301e-06
1.54301e-06
1.54301e-06
1.54301e-06
1.55296e-06
1.55247e-06
1.55073e-06
1.54766e-06
1.54301e-06
1.54301e-06
1.54301e-06
1.54301e-06
1.54301e-06
1.54301e-06
1.55255e-06
1.5509e-06
1.55089e-06
1.5476e-06
1.54301e-06
1.54301e-06
1.54301e-06
1.54301e-06
1.54301e-06
1.54301e-06
1.55199e-06
1.54807e-06
1.54816e-06
1.54301e-06
1.54301e-06
1.54301e-06
1.54301e-06
1.54301e-06
1.54301e-06
1.55286e-06
1.55156e-06
1.55206e-06
1.55145e-06
1.54301e-06
1.54301e-06
1.54301e-06
1.54301e-06
1.55398e-06
1.55141e-06
1.55208e-06
1.55137e-06
1.54943e-06
1.55299e-06
1.55257e-06
1.55202e-06
1.55285e-06
1.5514e-06
1.5528e-06
1.55248e-06
1.55091e-06
1.5481e-06
1.55157e-06
1.5521e-06
1.52754e-06
1.52769e-06
1.52694e-06
1.52495e-06
1.52446e-06
1.52438e-06
1.52496e-06
1.52885e-06
1.52814e-06
1.52701e-06
1.52386e-06
1.51981e-06
1.51981e-06
1.51981e-06
1.51981e-06
1.52824e-06
1.52624e-06
1.52495e-06
1.51981e-06
1.51981e-06
1.51981e-06
1.51981e-06
1.51981e-06
1.51981e-06
1.52976e-06
1.52927e-06
1.52754e-06
1.52446e-06
1.51981e-06
1.51981e-06
1.51981e-06
1.51981e-06
1.51981e-06
1.51981e-06
1.52935e-06
1.5277e-06
1.52769e-06
1.5244e-06
1.51981e-06
1.51981e-06
1.51981e-06
1.51981e-06
1.51981e-06
1.51981e-06
1.52879e-06
1.52487e-06
1.52496e-06
1.51981e-06
1.51981e-06
1.51981e-06
1.51981e-06
1.51981e-06
1.51981e-06
1.52966e-06
1.52836e-06
1.52886e-06
1.52825e-06
1.51981e-06
1.51981e-06
1.51981e-06
1.51981e-06
1.53078e-06
1.52821e-06
1.52888e-06
1.52817e-06
1.52624e-06
1.52979e-06
1.52937e-06
1.52882e-06
1.52965e-06
1.5282e-06
1.5296e-06
1.52928e-06
1.52771e-06
1.5249e-06
1.52837e-06
1.5289e-06
1.50433e-06
1.50449e-06
1.50387e-06
1.50174e-06
1.50125e-06
1.50118e-06
1.50175e-06
1.50565e-06
1.50494e-06
1.50382e-06
1.50066e-06
1.49661e-06
1.49661e-06
1.49661e-06
1.49661e-06
1.50504e-06
1.50304e-06
1.50174e-06
1.49661e-06
1.49661e-06
1.49661e-06
1.49661e-06
1.49661e-06
1.49661e-06
1.50656e-06
1.50607e-06
1.50433e-06
1.50126e-06
1.49661e-06
1.49661e-06
1.49661e-06
1.49661e-06
1.49661e-06
1.49661e-06
1.50614e-06
1.5045e-06
1.50449e-06
1.5012e-06
1.49661e-06
1.49661e-06
1.49661e-06
1.49661e-06
1.49661e-06
1.49661e-06
1.50559e-06
1.50167e-06
1.50176e-06
1.49661e-06
1.49661e-06
1.49661e-06
1.49661e-06
1.49661e-06
1.49661e-06
1.50646e-06
1.50516e-06
1.50566e-06
1.50505e-06
1.49661e-06
1.49661e-06
1.49661e-06
1.49661e-06
1.50758e-06
1.505e-06