/*--------------------------------*- C++ -*----------------------------------*\
| =========                 |                                                 |
| \\      /  F ield         | OpenFOAM: The Open Source CFD Toolbox           |
|  \\    /   O peration     | Version:  v2012                                 |
|   \\  /    A nd           | Website:  www.openfoam.com                      |
|    \\/     M anipulation  |                                                 |
\*---------------------------------------------------------------------------*/
FoamFile
{
    version     2.0;
    format      ascii;
    class       volScalarField;
    location    "187.5";
    object      epsilon;
}
// * * * * * * * * * * * * * * * * * * * * * * * * * * * * * * * * * * * * * //

dimensions      [0 2 -3 0 0 0 0];


internalField   nonuniform List<scalar> 
171728
(
1.27842e-08
4.16535e-09
5.07636e-09
5.02951e-09
1.26921e-08
3.96279e-09
4.56802e-09
4.56398e-09
1.2902e-08
3.78308e-09
4.24867e-09
4.16289e-09
1.31283e-08
3.6404e-09
4.00255e-09
3.81788e-09
1.33646e-08
3.53191e-09
3.82205e-09
3.52366e-09
1.36186e-08
3.46026e-09
3.68983e-09
3.27895e-09
1.38906e-08
3.42669e-09
3.60687e-09
3.07088e-09
1.41851e-08
3.43473e-09
3.58153e-09
2.90288e-09
1.44909e-08
3.48339e-09
3.60503e-09
2.78385e-09
1.48119e-08
3.58019e-09
3.67812e-09
2.70295e-09
1.51463e-08
3.72438e-09
3.80238e-09
2.66023e-09
1.54904e-08
3.92471e-09
3.98044e-09
2.65827e-09
1.58416e-08
4.18733e-09
4.22405e-09
2.69998e-09
1.61952e-08
4.52248e-09
4.5433e-09
2.79966e-09
1.6549e-08
4.9584e-09
4.96044e-09
2.99666e-09
1.69067e-08
5.52625e-09
5.51781e-09
3.32195e-09
1.72656e-08
6.28439e-09
6.27315e-09
3.89446e-09
1.76335e-08
7.34847e-09
7.32438e-09
4.85464e-09
1.80131e-08
8.79913e-09
8.78772e-09
6.42807e-09
1.84174e-08
1.09354e-08
1.09113e-08
9.32549e-09
1.88446e-08
1.39477e-08
1.39067e-08
1.39638e-08
1.93219e-08
1.82027e-08
1.81101e-08
2.21583e-08
1.98646e-08
2.40702e-08
2.39083e-08
3.51482e-08
2.04898e-08
3.20262e-08
3.16605e-08
5.5252e-08
2.1232e-08
4.24088e-08
4.19328e-08
8.59069e-08
2.21286e-08
5.55367e-08
5.49514e-08
1.2629e-07
2.32412e-08
7.19467e-08
7.0898e-08
1.81939e-07
2.46194e-08
9.14366e-08
9.00189e-08
2.47497e-07
2.63445e-08
1.14265e-07
1.12559e-07
3.21633e-07
2.85238e-08
1.40628e-07
1.38916e-07
3.9951e-07
3.12123e-08
1.70057e-07
1.69209e-07
4.77378e-07
3.45817e-08
2.02641e-07
2.02418e-07
5.52261e-07
3.86754e-08
2.38663e-07
2.38499e-07
6.1996e-07
4.37708e-08
2.78765e-07
2.79926e-07
6.82801e-07
5.00009e-08
3.21396e-07
3.23298e-07
7.37033e-07
5.74871e-08
3.65889e-07
3.68191e-07
7.83849e-07
6.64513e-08
4.1017e-07
4.13543e-07
8.23818e-07
7.7436e-08
4.54872e-07
4.58153e-07
8.59411e-07
9.04549e-08
4.96468e-07
4.98443e-07
8.88651e-07
1.04312e-07
5.26298e-07
5.27327e-07
8.97161e-07
1.19537e-07
5.52374e-07
5.53074e-07
8.97696e-07
1.39863e-07
5.88887e-07
5.89483e-07
9.0826e-07
1.70086e-07
6.42873e-07
6.4329e-07
9.39379e-07
2.09114e-07
7.02011e-07
7.02275e-07
9.83715e-07
2.51645e-07
7.552e-07
7.55369e-07
1.02989e-06
2.89303e-07
7.94717e-07
7.94854e-07
1.06957e-06
3.13087e-07
8.15838e-07
8.15962e-07
1.09272e-06
3.24495e-07
8.24826e-07
8.2494e-07
1.10325e-06
3.28995e-07
8.28173e-07
8.28282e-07
1.10754e-06
3.30538e-07
8.29333e-07
8.29439e-07
1.10922e-06
3.30975e-07
8.29664e-07
8.29771e-07
1.10975e-06
3.31027e-07
8.2964e-07
8.29747e-07
1.10973e-06
3.31044e-07
8.2964e-07
8.29747e-07
1.10958e-06
3.3106e-07
8.29696e-07
8.29802e-07
1.10986e-06
3.31046e-07
8.29644e-07
8.2975e-07
1.10962e-06
3.3105e-07
8.29672e-07
8.29781e-07
1.10977e-06
3.31048e-07
8.29652e-07
8.29758e-07
1.10968e-06
3.31051e-07
8.29664e-07
8.2977e-07
1.10978e-06
3.31051e-07
8.29662e-07
8.2977e-07
1.10966e-06
3.31051e-07
8.29661e-07
8.29765e-07
1.1098e-06
3.31052e-07
8.29666e-07
8.29772e-07
1.10972e-06
3.31052e-07
8.29661e-07
8.29766e-07
1.10967e-06
3.31052e-07
8.29658e-07
8.29764e-07
1.10972e-06
3.31053e-07
8.29667e-07
8.29773e-07
1.1098e-06
3.31053e-07
8.29666e-07
8.29771e-07
1.10976e-06
3.31053e-07
8.29661e-07
8.29766e-07
1.10969e-06
3.31053e-07
8.29665e-07
8.29772e-07
1.10968e-06
3.31054e-07
8.29665e-07
8.29768e-07
1.10975e-06
3.31054e-07
8.2966e-07
8.29764e-07
1.10973e-06
3.31052e-07
8.29665e-07
8.29764e-07
1.10969e-06
3.31052e-07
8.29668e-07
8.29769e-07
1.1098e-06
3.31051e-07
8.29658e-07
8.29763e-07
1.10976e-06
3.31049e-07
8.29662e-07
8.29762e-07
1.10969e-06
3.31048e-07
8.29664e-07
8.29762e-07
1.10977e-06
3.31047e-07
8.29658e-07
8.2976e-07
1.10978e-06
3.31047e-07
8.29656e-07
8.29762e-07
1.10969e-06
3.31046e-07
8.29659e-07
8.29762e-07
1.10961e-06
3.31046e-07
8.29659e-07
8.29764e-07
1.10962e-06
3.31045e-07
8.29656e-07
8.29762e-07
1.10969e-06
3.31045e-07
8.29652e-07
8.29757e-07
1.10977e-06
3.31045e-07
8.29653e-07
8.29757e-07
1.10978e-06
3.31044e-07
8.29655e-07
8.29761e-07
1.10973e-06
3.31043e-07
8.29655e-07
8.2976e-07
1.1097e-06
3.31042e-07
8.29658e-07
8.29761e-07
1.10972e-06
3.31042e-07
8.29658e-07
8.29763e-07
1.10972e-06
3.31041e-07
8.2966e-07
8.29765e-07
1.10969e-06
3.31042e-07
8.29665e-07
8.29771e-07
1.10969e-06
3.31042e-07
8.29672e-07
8.29774e-07
1.10972e-06
3.31043e-07
8.29684e-07
8.29787e-07
1.10976e-06
3.31044e-07
8.29696e-07
8.29801e-07
1.10976e-06
3.31045e-07
8.29714e-07
8.29817e-07
1.10973e-06
3.31048e-07
8.29745e-07
8.29846e-07
1.10969e-06
3.31045e-07
8.29783e-07
8.29886e-07
1.10968e-06
3.30566e-07
8.29496e-07
8.29593e-07
1.10935e-06
3.14504e-07
7.76032e-07
7.76039e-07
1.06404e-06
5.27561e-09
4.3574e-09
4.095e-09
4.89973e-09
4.22508e-09
4.11016e-09
1.30971e-08
1.30315e-08
1.31169e-08
1.31393e-08
4.02421e-09
4.01591e-09
5.10154e-09
4.25391e-09
4.37814e-09
5.05879e-09
5.25014e-09
4.79786e-09
4.97278e-09
8.07979e-09
4.71416e-09
6.64854e-09
4.85907e-09
4.42938e-09
4.60917e-09
3.93942e-09
4.05573e-09
3.75799e-09
4.75112e-09
4.0132e-09
4.47024e-09
5.08012e-09
4.67483e-09
4.99954e-09
4.65963e-09
4.74222e-09
4.60889e-09
4.76611e-09
4.38294e-09
4.63081e-09
6.25991e-09
4.40644e-09
5.21123e-09
4.39102e-09
4.03733e-09
3.93515e-09
3.69941e-09
3.67535e-09
3.54537e-09
4.37731e-09
3.82567e-09
4.11852e-09
4.64506e-09
4.27547e-09
4.65966e-09
4.32529e-09
4.43626e-09
4.21494e-09
4.35758e-09
4.03204e-09
4.33979e-09
4.90241e-09
4.15766e-09
4.16884e-09
3.99854e-09
3.70969e-09
3.60887e-09
3.50056e-09
3.45435e-09
3.3829e-09
4.03984e-09
3.67335e-09
3.82378e-09
4.24933e-09
3.93264e-09
4.36779e-09
4.05685e-09
4.18143e-09
3.87089e-09
4.00812e-09
3.72937e-09
4.10105e-09
3.99408e-09
3.95539e-09
3.62388e-09
3.67007e-09
3.43182e-09
3.41531e-09
3.34805e-09
3.31649e-09
3.2598e-09
3.75751e-09
3.55747e-09
3.58071e-09
3.90996e-09
3.647e-09
4.1278e-09
3.86114e-09
3.98851e-09
3.57039e-09
3.70864e-09
3.46996e-09
3.9129e-09
3.53674e-09
3.80278e-09
3.33468e-09
3.40429e-09
3.19805e-09
3.28987e-09
3.23366e-09
3.22304e-09
3.17349e-09
3.52851e-09
3.47419e-09
3.39725e-09
3.62758e-09
3.40573e-09
3.94809e-09
3.71904e-09
3.83521e-09
3.30846e-09
3.45164e-09
3.24909e-09
3.77123e-09
3.28884e-09
3.6901e-09
3.20227e-09
3.18042e-09
3.00766e-09
3.20504e-09
3.15662e-09
3.17358e-09
3.12927e-09
3.36386e-09
3.43242e-09
3.28884e-09
3.38879e-09
3.1977e-09
3.8019e-09
3.62289e-09
3.71435e-09
3.0868e-09
3.23434e-09
3.07099e-09
3.6673e-09
3.19091e-09
3.62135e-09
3.17374e-09
2.99433e-09
2.85416e-09
3.16892e-09
3.12603e-09
3.17378e-09
3.13191e-09
3.27416e-09
3.43007e-09
3.25455e-09
3.18425e-09
3.03736e-09
3.69104e-09
3.58145e-09
3.65083e-09
2.91401e-09
3.06011e-09
2.93871e-09
3.61073e-09
3.17456e-09
3.61032e-09
3.1926e-09
2.84444e-09
2.73671e-09
3.18074e-09
3.1398e-09
3.21816e-09
3.18131e-09
3.25567e-09
3.4704e-09
3.27935e-09
3.02795e-09
2.91676e-09
3.64701e-09
3.59687e-09
3.6543e-09
2.79088e-09
2.93208e-09
2.84333e-09
3.61583e-09
3.20926e-09
3.65811e-09
3.27738e-09
2.72986e-09
2.64837e-09
3.23615e-09
3.20128e-09
3.30894e-09
3.27745e-09
3.29548e-09
3.55556e-09
3.35975e-09
2.91058e-09
2.82675e-09
3.6636e-09
3.65907e-09
3.71253e-09
2.70603e-09
2.8401e-09
2.77707e-09
3.67788e-09
3.30609e-09
3.76016e-09
3.41389e-09
2.64544e-09
2.60021e-09
3.33903e-09
3.30822e-09
3.44475e-09
3.419e-09
3.38719e-09
3.68908e-09
3.4871e-09
2.82413e-09
2.77065e-09
3.73387e-09
3.77102e-09
3.81268e-09
2.65708e-09
2.77817e-09
2.74612e-09
3.79197e-09
3.45523e-09
3.91515e-09
3.59961e-09
2.60409e-09
2.59851e-09
3.48521e-09
3.46182e-09
3.62474e-09
3.61084e-09
3.52617e-09
3.87368e-09
3.66427e-09
2.77348e-09
2.75442e-09
3.84569e-09
3.93417e-09
3.96827e-09
2.64756e-09
2.75502e-09
2.76059e-09
3.96322e-09
3.65567e-09
4.13157e-09
3.8442e-09
2.61086e-09
2.64469e-09
3.67762e-09
3.66822e-09
3.85923e-09
3.86258e-09
3.71768e-09
4.12036e-09
3.89822e-09
2.76518e-09
2.78395e-09
4.01737e-09
4.16113e-09
4.18787e-09
2.67931e-09
2.78008e-09
2.83509e-09
4.19538e-09
3.91535e-09
4.41662e-09
4.15786e-09
2.66794e-09
2.748e-09
3.92733e-09
3.93677e-09
4.15956e-09
4.18463e-09
3.96663e-09
4.43563e-09
4.19726e-09
2.80514e-09
2.87332e-09
4.25341e-09
4.45937e-09
4.48088e-09
2.76514e-09
2.86956e-09
2.99022e-09
4.49947e-09
4.24859e-09
4.79059e-09
4.55551e-09
2.78797e-09
2.93397e-09
4.24757e-09
4.27825e-09
4.54903e-09
4.59872e-09
4.28531e-09
4.84448e-09
4.5879e-09
2.91038e-09
3.04542e-09
4.56933e-09
4.84948e-09
4.87917e-09
2.93363e-09
3.05217e-09
3.27004e-09
4.90163e-09
4.67359e-09
5.28963e-09
5.07772e-09
2.99987e-09
3.23812e-09
4.66329e-09
4.7202e-09
5.05383e-09
5.13631e-09
4.70525e-09
5.37312e-09
5.11086e-09
3.11084e-09
3.354e-09
4.9974e-09
5.36865e-09
5.40509e-09
3.21686e-09
3.37209e-09
3.7582e-09
5.43969e-09
5.2336e-09
5.9748e-09
5.7674e-09
3.34875e-09
3.73602e-09
5.20312e-09
5.29602e-09
5.73164e-09
5.84701e-09
5.2658e-09
6.07812e-09
5.81366e-09
3.46703e-09
3.86759e-09
5.56145e-09
6.06402e-09
6.11666e-09
3.7115e-09
3.94274e-09
4.55875e-09
6.18535e-09
5.97804e-09
6.91357e-09
6.74362e-09
3.91097e-09
4.61233e-09
5.93937e-09
6.0653e-09
6.66268e-09
6.83744e-09
6.03198e-09
7.05409e-09
6.78601e-09
4.05554e-09
4.77071e-09
6.33539e-09
7.04117e-09
7.09934e-09
4.56306e-09
4.83721e-09
5.93827e-09
7.19636e-09
7.03878e-09
8.24565e-09
8.06808e-09
4.92331e-09
5.98257e-09
6.94295e-09
7.13203e-09
7.97393e-09
8.19022e-09
7.07972e-09
8.39839e-09
8.12976e-09
5.0705e-09
6.17941e-09
7.39396e-09
8.37267e-09
8.44937e-09
5.93848e-09
6.44115e-09
8.40981e-09
8.66219e-09
8.4823e-09
1.01809e-08
9.97362e-09
6.45979e-09
8.3952e-09
8.38587e-09
8.61525e-09
9.87459e-09
1.01502e-08
8.54385e-09
1.03332e-08
1.00719e-08
6.69391e-09
8.79037e-09
8.86864e-09
1.03175e-08
1.04117e-08
8.46482e-09
9.22531e-09
1.25541e-08
1.0772e-08
1.05685e-08
1.29095e-08
1.27476e-08
9.21941e-09
1.27431e-08
1.04609e-08
1.07585e-08
1.25723e-08
1.29114e-08
1.06833e-08
1.31067e-08
1.2796e-08
9.641e-09
1.31455e-08
1.10286e-08
1.3066e-08
1.317e-08
1.26512e-08
1.38904e-08
1.96451e-08
1.37559e-08
1.35949e-08
1.67565e-08
1.65726e-08
1.41106e-08
1.9823e-08
1.34067e-08
1.37617e-08
1.63809e-08
1.68122e-08
1.36413e-08
1.70106e-08
1.66889e-08
1.45228e-08
2.05103e-08
1.40216e-08
1.69312e-08
1.71168e-08
1.99707e-08
2.17765e-08
3.14422e-08
1.79309e-08
1.77661e-08
2.21474e-08
2.20059e-08
2.19867e-08
3.19517e-08
1.75522e-08
1.80128e-08
2.17073e-08
2.21893e-08
1.78677e-08
2.24486e-08
2.20616e-08
2.27482e-08
3.2482e-08
1.83143e-08
2.22645e-08
2.25269e-08
3.17516e-08
3.47607e-08
4.98423e-08
2.37698e-08
2.36049e-08
2.93853e-08
2.91981e-08
3.52782e-08
5.02199e-08
2.33085e-08
2.38456e-08
2.88912e-08
2.95547e-08
2.37092e-08
2.98024e-08
2.93137e-08
3.58825e-08
5.17043e-08
2.41844e-08
2.95683e-08
2.98436e-08
5.04427e-08
5.47986e-08
7.76779e-08
3.15731e-08
3.13921e-08
3.91204e-08
3.88786e-08
5.5261e-08
7.84857e-08
3.10702e-08
3.16769e-08
3.84966e-08
3.91252e-08
3.14718e-08
3.95853e-08
3.91169e-08
5.6485e-08
7.88623e-08
3.20323e-08
3.90826e-08
3.97674e-08
7.87774e-08
8.45225e-08
1.16342e-07
4.19519e-08
4.1704e-08
5.15409e-08
5.12794e-08
8.53034e-08
1.1718e-07
4.12864e-08
4.20125e-08
5.08334e-08
5.16649e-08
4.19761e-08
5.19949e-08
5.14584e-08
8.60214e-08
1.18524e-07
4.26562e-08
5.14487e-08
5.22847e-08
1.17198e-07
1.25644e-07
1.6767e-07
5.51218e-08
5.48043e-08
6.69724e-08
6.66017e-08
1.26439e-07
1.68489e-07
5.43991e-08
5.52187e-08
6.62221e-08
6.6956e-08
5.50609e-08
6.75274e-08
6.71756e-08
1.276e-07
1.68786e-07
5.59463e-08
6.66142e-08
6.83301e-08
1.70062e-07
1.79238e-07
2.31405e-07
7.13358e-08
7.09853e-08
8.58603e-08
8.53345e-08
1.80196e-07
2.32579e-07
7.05893e-08
7.13377e-08
8.4986e-08
8.56509e-08
7.15407e-08
8.6324e-08
8.59309e-08
1.8027e-07
2.31624e-07
7.28212e-08
8.49695e-08
8.76662e-08
2.33476e-07
2.45286e-07
3.04226e-07
9.10649e-08
9.04319e-08
1.07646e-07
1.07039e-07
2.46288e-07
3.04907e-07
9.01827e-08
9.0693e-08
1.06823e-07
1.0746e-07
9.114e-08
1.08176e-07
1.07455e-07
2.45142e-07
3.03214e-07
9.31413e-08
1.06573e-07
1.10673e-07
3.06907e-07
3.19502e-07
3.84236e-07
1.1376e-07
1.13093e-07
1.33789e-07
1.32495e-07
3.20377e-07
3.8428e-07
1.12856e-07
1.13525e-07
1.32586e-07
1.32446e-07
1.13244e-07
1.33783e-07
1.32491e-07
3.18493e-07
3.81798e-07
1.16903e-07
1.31973e-07
1.36816e-07
3.83332e-07
4.00655e-07
4.62394e-07
1.40724e-07
1.39324e-07
1.626e-07
1.61258e-07
4.00251e-07
4.6207e-07
1.39552e-07
1.39305e-07
1.61434e-07
1.62136e-07
1.39491e-07
1.62421e-07
1.61868e-07
3.97981e-07
4.61637e-07
1.43643e-07
1.61253e-07
1.64893e-07
4.61407e-07
4.78343e-07
5.38357e-07
1.70528e-07
1.69027e-07
1.95897e-07
1.93667e-07
4.78151e-07
5.367e-07
1.69272e-07
1.70173e-07
1.94288e-07
1.9455e-07
1.69892e-07
1.94192e-07
1.95766e-07
4.77996e-07
5.36786e-07
1.72431e-07
1.94005e-07
1.95825e-07
5.36777e-07
5.54162e-07
6.07372e-07
2.04633e-07
2.02314e-07
2.31268e-07
2.29625e-07
5.52198e-07
6.05963e-07
2.02973e-07
2.0287e-07
2.2995e-07
2.29469e-07
2.04812e-07
2.29312e-07
2.32291e-07
5.51894e-07
6.0397e-07
2.03898e-07
2.28962e-07
2.29846e-07
6.05276e-07
6.21817e-07
6.69466e-07
2.40369e-07
2.39166e-07
2.69147e-07
2.6922e-07
6.20767e-07
6.69585e-07
2.3935e-07
2.39048e-07
2.6916e-07
2.69551e-07
2.41495e-07
2.68396e-07
2.70164e-07
6.18856e-07
6.70045e-07
2.39067e-07
2.69223e-07
2.68463e-07
6.68867e-07
6.83397e-07
7.26325e-07
2.79293e-07
2.79721e-07
3.10794e-07
3.12019e-07
6.83654e-07
7.27147e-07
2.7964e-07
2.80089e-07
3.11717e-07
3.11968e-07
2.80201e-07
3.10599e-07
3.11035e-07
6.8445e-07
7.27781e-07
2.78871e-07
3.12395e-07
3.10992e-07
7.24685e-07
7.38941e-07
7.74263e-07
3.21575e-07
3.22959e-07
3.54764e-07
3.56397e-07
7.3985e-07
7.75101e-07
3.22497e-07
3.22681e-07
3.55338e-07
3.55686e-07
3.21531e-07
3.54662e-07
3.54201e-07
7.40265e-07
7.75636e-07
3.21862e-07
3.56788e-07
3.55168e-07
7.72552e-07
7.85309e-07
8.1423e-07
3.65994e-07
3.67654e-07
3.99521e-07
4.01066e-07
7.86092e-07
8.1465e-07
3.66491e-07
3.66974e-07
4e-07
4.00759e-07
3.65353e-07
3.9923e-07
3.98633e-07
7.86828e-07
8.16172e-07
3.66393e-07
4.02338e-07
3.99647e-07
8.13967e-07
8.2388e-07
8.49313e-07
4.10569e-07
4.12049e-07
4.44004e-07
4.45193e-07
8.24236e-07
8.49554e-07
4.11078e-07
4.11822e-07
4.4437e-07
4.44919e-07
4.09626e-07
4.43514e-07
4.43183e-07
8.25685e-07
8.49759e-07
4.10598e-07
4.47011e-07
4.4401e-07
8.49978e-07
8.58632e-07
8.81125e-07
4.55332e-07
4.56374e-07
4.87405e-07
4.88032e-07
8.58876e-07
8.81261e-07
4.55621e-07
4.56053e-07
4.87601e-07
4.87667e-07
4.54606e-07
4.87128e-07
4.86965e-07
8.58689e-07
8.80223e-07
4.55387e-07
4.8942e-07
4.87551e-07
8.81913e-07
8.87944e-07
8.93699e-07
4.96697e-07
4.9724e-07
5.19814e-07
5.20289e-07
8.88055e-07
8.9381e-07
4.96932e-07
4.96893e-07
5.20127e-07
5.20007e-07
4.96351e-07
5.19746e-07
5.19773e-07
8.86983e-07
8.93119e-07
4.96861e-07
5.20945e-07
5.19999e-07
8.94166e-07
8.96712e-07
8.9447e-07
5.26347e-07
5.26831e-07
5.45466e-07
5.4595e-07
8.96844e-07
8.94602e-07
5.2666e-07
5.26553e-07
5.45638e-07
5.45674e-07
5.26392e-07
5.45421e-07
5.45656e-07
8.96225e-07
8.94377e-07
5.26532e-07
5.4616e-07
5.45597e-07
8.94823e-07
8.97358e-07
9.02509e-07
5.52463e-07
5.52908e-07
5.78347e-07
5.78586e-07
8.97479e-07
9.02472e-07
5.52581e-07
5.52665e-07
5.78278e-07
5.7854e-07
5.52651e-07
5.78125e-07
5.7844e-07
8.97289e-07
9.02607e-07
5.52555e-07
5.78749e-07
5.78292e-07
9.02668e-07
9.08137e-07
9.30065e-07
5.89153e-07
5.89318e-07
6.2846e-07
6.28495e-07
9.08069e-07
9.29893e-07
5.89051e-07
5.89352e-07
6.28304e-07
6.28669e-07
5.89214e-07
6.28166e-07
6.28494e-07
9.08258e-07
9.30254e-07
5.89059e-07
6.28628e-07
6.28327e-07
9.30089e-07
9.3936e-07
9.73513e-07
6.43169e-07
6.4319e-07
6.87846e-07
6.87858e-07
9.39193e-07
9.7337e-07
6.43016e-07
6.43374e-07
6.87689e-07
6.88021e-07
6.43211e-07
6.87589e-07
6.87921e-07
9.39544e-07
9.7367e-07
6.43042e-07
6.87885e-07
6.87749e-07
9.73558e-07
9.83671e-07
1.01971e-06
7.02257e-07
7.02269e-07
7.4298e-07
7.43002e-07
9.8354e-07
1.01959e-06
7.02109e-07
7.02421e-07
7.42847e-07
7.43117e-07
7.02339e-07
7.42779e-07
7.43071e-07
9.83818e-07
1.01981e-06
7.0217e-07
7.42964e-07
7.42923e-07
1.01977e-06
1.02983e-06
1.06145e-06
7.55392e-07
7.55416e-07
7.86792e-07
7.86825e-07
1.02973e-06
1.06135e-06
7.55268e-07
7.55521e-07
7.86676e-07
7.869e-07
7.55483e-07
7.86617e-07
7.86886e-07
1.02992e-06
1.06151e-06
7.55342e-07
7.86758e-07
7.86758e-07
1.06153e-06
1.0695e-06
1.08757e-06
7.94886e-07
7.94919e-07
8.12174e-07
8.1221e-07
1.0694e-06
1.08748e-06
7.94777e-07
7.94989e-07
8.12068e-07
8.12267e-07
7.9498e-07
8.12012e-07
8.12268e-07
1.06955e-06
1.08762e-06
7.94855e-07
8.12138e-07
8.12147e-07
1.08765e-06
1.09264e-06
1.09989e-06
8.15992e-07
8.16029e-07
8.23451e-07
8.23487e-07
1.09255e-06
1.0998e-06
8.15891e-07
8.16084e-07
8.23347e-07
8.23539e-07
8.16086e-07
8.233e-07
8.23543e-07
1.09268e-06
1.09993e-06
8.15966e-07
8.23415e-07
8.23426e-07
1.09997e-06
1.10316e-06
1.10497e-06
8.2497e-07
8.25005e-07
8.27772e-07
8.27807e-07
1.10308e-06
1.10489e-06
8.24869e-07
8.25058e-07
8.27668e-07
8.27859e-07
8.25061e-07
8.27629e-07
8.27863e-07
1.1032e-06
1.10502e-06
8.24946e-07
8.27738e-07
8.2775e-07
1.10506e-06
1.10745e-06
1.10696e-06
8.28311e-07
8.28346e-07
8.29286e-07
8.29322e-07
1.10737e-06
1.10689e-06
8.2821e-07
8.28398e-07
8.29183e-07
8.29371e-07
8.28401e-07
8.29146e-07
8.29376e-07
1.10749e-06
1.10701e-06
8.2829e-07
8.29253e-07
8.29266e-07
1.10705e-06
1.10913e-06
1.10758e-06
8.2947e-07
8.29506e-07
8.29771e-07
8.29806e-07
1.10905e-06
1.1075e-06
8.29369e-07
8.29554e-07
8.29666e-07
8.29853e-07
8.29559e-07
8.29629e-07
8.29859e-07
1.10917e-06
1.10762e-06
8.2945e-07
8.29736e-07
8.2975e-07
1.10766e-06
1.10966e-06
1.10761e-06
8.29804e-07
8.29839e-07
8.29801e-07
8.29835e-07
1.10959e-06
1.10753e-06
8.297e-07
8.29885e-07
8.29695e-07
8.29882e-07
8.29892e-07
8.29658e-07
8.29889e-07
1.1097e-06
1.10765e-06
8.29783e-07
8.29765e-07
8.29779e-07
1.10769e-06
1.10964e-06
1.10741e-06
8.29781e-07
8.29815e-07
8.29767e-07
8.29801e-07
1.10956e-06
1.10733e-06
8.29675e-07
8.29861e-07
8.2966e-07
8.29847e-07
8.29869e-07
8.29624e-07
8.29855e-07
1.10968e-06
1.10745e-06
8.29759e-07
8.29731e-07
8.29744e-07
1.1075e-06
1.10949e-06
1.10773e-06
8.2978e-07
8.29813e-07
8.2984e-07
8.29872e-07
1.10941e-06
1.10766e-06
8.29672e-07
8.29858e-07
8.2973e-07
8.29917e-07
8.29867e-07
8.29694e-07
8.29925e-07
1.10953e-06
1.10777e-06
8.29756e-07
8.298e-07
8.29814e-07
1.10782e-06
1.10977e-06
1.10754e-06
8.29839e-07
8.2987e-07
8.29805e-07
8.29834e-07
1.1097e-06
1.10745e-06
8.2973e-07
8.29915e-07
8.29695e-07
8.29881e-07
8.29923e-07
8.29658e-07
8.29888e-07
1.10981e-06
1.10757e-06
8.29812e-07
8.29764e-07
8.29777e-07
1.10761e-06
1.10954e-06
1.10757e-06
8.29788e-07
8.29818e-07
8.29798e-07
8.29829e-07
1.10946e-06
1.10749e-06
8.29679e-07
8.29865e-07
8.29687e-07
8.29876e-07
8.29873e-07
8.29652e-07
8.29884e-07
1.10957e-06
1.10762e-06
8.29761e-07
8.29762e-07
8.29775e-07
1.10767e-06
1.10967e-06
1.10758e-06
8.29815e-07
8.29847e-07
8.29808e-07
8.29837e-07
1.1096e-06
1.10749e-06
8.29706e-07
8.29893e-07
8.29697e-07
8.29884e-07
8.29901e-07
8.29661e-07
8.29892e-07
1.10972e-06
1.10762e-06
8.29791e-07
8.29766e-07
8.29777e-07
1.10766e-06
1.10961e-06
1.1076e-06
8.29796e-07
8.29826e-07
8.29803e-07
8.29836e-07
1.10952e-06
1.10753e-06
8.29685e-07
8.29872e-07
8.29691e-07
8.2988e-07
8.29881e-07
8.29658e-07
8.29889e-07
1.10964e-06
1.10765e-06
8.29766e-07
8.29764e-07
8.29775e-07
1.10769e-06
1.10968e-06
1.10756e-06
8.29806e-07
8.29839e-07
8.29806e-07
8.29836e-07
1.10962e-06
1.10746e-06
8.29696e-07
8.29883e-07
8.29693e-07
8.29882e-07
8.29891e-07
8.2966e-07
8.2989e-07
1.10974e-06
1.10758e-06
8.29777e-07
8.29768e-07
8.29778e-07
1.10763e-06
1.10958e-06
1.10767e-06
8.29806e-07
8.29835e-07
8.2981e-07
8.29838e-07
1.10949e-06
1.10759e-06
8.29693e-07
8.29881e-07
8.29693e-07
8.29882e-07
8.2989e-07
8.29662e-07
8.29892e-07
1.10961e-06
1.10771e-06
8.29777e-07
8.29766e-07
8.29777e-07
1.10775e-06
1.10972e-06
1.10753e-06
8.29807e-07
8.29833e-07
8.29811e-07
8.29838e-07
1.10963e-06
1.10747e-06
8.29693e-07
8.2988e-07
8.29694e-07
8.29885e-07
8.2989e-07
8.29664e-07
8.29893e-07
1.10974e-06
1.1076e-06
8.29775e-07
8.29769e-07
8.29781e-07
1.10763e-06
1.10961e-06
1.10757e-06
8.29811e-07
8.29838e-07
8.29806e-07
8.29833e-07
1.10956e-06
1.10746e-06
8.29694e-07
8.29883e-07
8.29693e-07
8.2988e-07
8.29893e-07
8.29658e-07
8.29888e-07
1.10968e-06
1.10758e-06
8.29781e-07
8.29763e-07
8.29773e-07
1.10763e-06
1.10959e-06
1.10765e-06
8.29805e-07
8.29833e-07
8.29811e-07
8.29838e-07
1.1095e-06
1.10754e-06
8.29693e-07
8.2988e-07
8.29695e-07
8.29882e-07
8.29888e-07
8.29661e-07
8.29891e-07
1.10962e-06
1.10765e-06
8.29773e-07
8.29767e-07
8.29778e-07
1.10771e-06
1.10967e-06
1.10762e-06
8.29805e-07
8.29834e-07
8.2981e-07
8.29841e-07
1.10956e-06
1.10757e-06
8.29693e-07
8.29879e-07
8.29695e-07
8.29885e-07
8.29886e-07
8.29667e-07
8.29897e-07
1.10967e-06
1.10768e-06
8.29772e-07
8.29772e-07
8.29783e-07
1.10774e-06
1.1097e-06
1.10753e-06
8.2981e-07
8.29838e-07
8.29807e-07
8.29838e-07
1.10962e-06
1.10752e-06
8.29695e-07
8.29882e-07
8.29693e-07
8.29883e-07
8.29893e-07
8.29658e-07
8.29887e-07
1.10972e-06
1.10765e-06
8.2978e-07
8.29765e-07
8.29773e-07
1.10766e-06
1.10961e-06
1.10755e-06
8.29807e-07
8.29839e-07
8.29809e-07
8.29837e-07
1.10961e-06
1.10747e-06
8.29693e-07
8.29882e-07
8.29694e-07
8.29884e-07
8.29892e-07
8.29661e-07
8.2989e-07
1.10972e-06
1.10762e-06
8.29777e-07
8.29766e-07
8.29776e-07
1.10762e-06
1.10958e-06
1.10762e-06
8.29809e-07
8.29837e-07
8.29809e-07
8.29836e-07
1.10955e-06
1.10748e-06
8.29694e-07
8.29884e-07
8.29693e-07
8.29881e-07
8.29887e-07
8.29663e-07
8.29891e-07
1.10969e-06
1.10762e-06
8.29774e-07
8.29769e-07
8.29777e-07
1.10763e-06
1.10963e-06
1.10764e-06
8.29809e-07
8.29836e-07
8.29811e-07
8.29839e-07
1.10953e-06
1.10753e-06
8.29693e-07
8.29881e-07
8.29693e-07
8.2988e-07
8.29891e-07
8.29661e-07
8.29894e-07
1.10969e-06
1.1076e-06
8.29777e-07
8.29764e-07
8.29782e-07
1.10772e-06
1.10968e-06
1.10762e-06
8.2981e-07
8.29839e-07
8.29813e-07
8.29835e-07
1.10957e-06
1.10746e-06
8.29692e-07
8.2988e-07
8.29697e-07
8.29882e-07
8.29894e-07
8.29659e-07
8.2989e-07
1.10967e-06
1.10757e-06
8.2978e-07
8.29762e-07
8.29775e-07
1.10765e-06
1.10969e-06
1.10756e-06
8.29813e-07
8.29833e-07
8.2981e-07
8.29844e-07
1.1095e-06
1.10758e-06
8.29697e-07
8.2988e-07
8.29693e-07
8.29884e-07
8.2989e-07
8.29667e-07
8.29894e-07
1.10963e-06
1.10764e-06
8.29775e-07
8.29766e-07
8.29779e-07
1.10767e-06
1.10962e-06
1.10765e-06
8.2981e-07
8.29838e-07
8.29815e-07
8.29836e-07
1.1096e-06
1.10751e-06
8.29693e-07
8.29881e-07
8.29697e-07
8.29881e-07
8.29889e-07
8.29661e-07
8.29896e-07
1.10966e-06
1.10767e-06
8.29774e-07
8.29764e-07
8.29781e-07
1.10775e-06
1.10972e-06
1.10754e-06
8.29817e-07
8.29839e-07
8.29804e-07
8.29835e-07
1.1096e-06
1.10747e-06
8.297e-07
8.29884e-07
8.29688e-07
8.29877e-07
8.29898e-07
8.29654e-07
8.29886e-07
1.10974e-06
1.10759e-06
8.29782e-07
8.29758e-07
8.29774e-07
1.10767e-06
1.10961e-06
1.10764e-06
8.29805e-07
8.29835e-07
8.29812e-07
8.29837e-07
1.10953e-06
1.10755e-06
8.2969e-07
8.29878e-07
8.29695e-07
8.29882e-07
8.29891e-07
8.29661e-07
8.2989e-07
1.10965e-06
1.10767e-06
8.29778e-07
8.2976e-07
8.29772e-07
1.10763e-06
1.10968e-06
1.10758e-06
8.29812e-07
8.29837e-07
8.29808e-07
8.29834e-07
1.1096e-06
1.10749e-06
8.29695e-07
8.29881e-07
8.2969e-07
8.2988e-07
8.29886e-07
8.29657e-07
8.29894e-07
1.1097e-06
1.10764e-06
8.29771e-07
8.29757e-07
8.2978e-07
1.10772e-06
1.10968e-06
1.1075e-06
8.29809e-07
8.29835e-07
8.29807e-07
8.29833e-07
1.10957e-06
1.10745e-06
8.29691e-07
8.29881e-07
8.29687e-07
8.2988e-07
8.29896e-07
8.2965e-07
8.29885e-07
1.10971e-06
1.1076e-06
8.29778e-07
8.29755e-07
8.29775e-07
1.10768e-06
1.10957e-06
1.10757e-06
8.29809e-07
8.29835e-07
8.29805e-07
8.29832e-07
1.10951e-06
1.1075e-06
8.29689e-07
8.2988e-07
8.29687e-07
8.29878e-07
8.2989e-07
8.29653e-07
8.29883e-07
1.10965e-06
1.10765e-06
8.29779e-07
8.29755e-07
8.29771e-07
1.10758e-06
1.10957e-06
1.10766e-06
8.29806e-07
8.29832e-07
8.29808e-07
8.2983e-07
1.10952e-06
1.10757e-06
8.2969e-07
8.2988e-07
8.29685e-07
8.29874e-07
8.29885e-07
8.29653e-07
8.29881e-07
1.10966e-06
1.10768e-06
8.29777e-07
8.29754e-07
8.29764e-07
1.10756e-06
1.10966e-06
1.10767e-06
8.2981e-07
8.29833e-07
8.298e-07
8.29824e-07
1.10959e-06
1.10758e-06
8.29688e-07
8.29877e-07
8.29685e-07
8.29874e-07
8.29885e-07
8.29649e-07
8.29879e-07
1.1097e-06
1.1077e-06
8.2977e-07
8.29755e-07
8.2977e-07
1.10763e-06
1.10972e-06
1.10762e-06
8.29805e-07
8.29828e-07
8.298e-07
8.29823e-07
1.10963e-06
1.10752e-06
8.29688e-07
8.29877e-07
8.29685e-07
8.2987e-07
8.29883e-07
8.29644e-07
8.29877e-07
1.10975e-06
1.10762e-06
8.2977e-07
8.29749e-07
8.29762e-07
1.10772e-06
1.10971e-06
1.10756e-06
8.29804e-07
8.29828e-07
8.29798e-07
8.29821e-07
1.10963e-06
1.10744e-06
8.29692e-07
8.29876e-07
8.29677e-07
8.29863e-07
8.29881e-07
8.2964e-07
8.29876e-07
1.1097e-06
1.1076e-06
8.29767e-07
8.29745e-07
8.29758e-07
1.10776e-06
1.10965e-06
1.10756e-06
8.29806e-07
8.29829e-07
8.29793e-07
8.29817e-07
1.10953e-06
1.10749e-06
8.29687e-07
8.29871e-07
8.29675e-07
8.29861e-07
8.29881e-07
8.2964e-07
8.29873e-07
1.10965e-06
1.10767e-06
8.29765e-07
8.29744e-07
8.29756e-07
1.10774e-06
1.10963e-06
1.10754e-06
8.29805e-07
8.29828e-07
8.29789e-07
8.29815e-07
1.10953e-06
1.10753e-06
8.29686e-07
8.2987e-07
8.29672e-07
8.29859e-07
8.29884e-07
8.29636e-07
8.29869e-07
1.1097e-06
1.10767e-06
8.29767e-07
8.29741e-07
8.29754e-07
1.10768e-06
1.10962e-06
1.10754e-06
8.29803e-07
8.29828e-07
8.29787e-07
8.29812e-07
1.10958e-06
1.10752e-06
8.29686e-07
8.29873e-07
8.29669e-07
8.29855e-07
8.29884e-07
8.29632e-07
8.29866e-07
1.10975e-06
1.10758e-06
8.29768e-07
8.29735e-07
8.29749e-07
1.10767e-06
1.10958e-06
1.10765e-06
8.29802e-07
8.2983e-07
8.29784e-07
8.29807e-07
1.1096e-06
1.10747e-06
8.29684e-07
8.29873e-07
8.29666e-07
8.29852e-07
8.29883e-07
8.29627e-07
8.29863e-07
1.10967e-06
1.10758e-06
8.29767e-07
8.29731e-07
8.29744e-07
1.1077e-06
1.10968e-06
1.1076e-06
8.29805e-07
8.29831e-07
8.29775e-07
8.298e-07
1.10957e-06
1.10745e-06
8.29688e-07
8.29875e-07
8.29657e-07
8.29847e-07
8.29886e-07
8.2962e-07
8.29854e-07
1.10964e-06
1.10761e-06
8.29768e-07
8.29726e-07
8.29736e-07
1.10768e-06
1.10971e-06
1.1075e-06
8.29808e-07
8.29832e-07
8.29767e-07
8.29794e-07
1.10953e-06
1.10745e-06
8.2969e-07
8.29879e-07
8.29649e-07
8.2984e-07
8.29886e-07
8.29616e-07
8.29848e-07
1.10966e-06
1.1076e-06
8.29768e-07
8.29722e-07
8.2973e-07
1.10766e-06
1.10959e-06
1.10753e-06
8.29807e-07
8.29834e-07
8.29762e-07
8.29789e-07
1.10952e-06
1.10746e-06
8.2969e-07
8.2988e-07
8.29646e-07
8.29836e-07
8.29887e-07
8.29611e-07
8.29844e-07
1.10966e-06
1.1076e-06
8.29769e-07
8.29716e-07
8.29726e-07
1.10768e-06
1.10958e-06
1.10759e-06
8.2981e-07
8.29837e-07
8.29757e-07
8.29783e-07
1.10952e-06
1.10747e-06
8.29694e-07
8.29884e-07
8.29641e-07
8.2983e-07
8.29891e-07
8.29606e-07
8.29839e-07
1.10965e-06
1.10759e-06
8.29774e-07
8.29708e-07
8.29719e-07
1.10772e-06
1.10963e-06
1.1076e-06
8.29818e-07
8.29844e-07
8.29749e-07
8.29775e-07
1.10953e-06
1.10747e-06
8.29702e-07
8.29891e-07
8.29633e-07
8.29822e-07
8.29899e-07
8.29597e-07
8.29831e-07
1.10963e-06
1.10763e-06
8.2978e-07
8.29703e-07
8.29712e-07
1.10775e-06
1.10966e-06
1.10759e-06
8.29829e-07
8.29854e-07
8.29739e-07
8.29766e-07
1.10953e-06
1.10748e-06
8.29713e-07
8.29902e-07
8.29623e-07
8.29812e-07
8.29911e-07
8.29586e-07
8.29818e-07
1.10966e-06
1.10765e-06
8.2979e-07
8.2969e-07
8.29701e-07
1.10773e-06
1.10966e-06
1.10759e-06
8.29841e-07
8.29867e-07
8.29728e-07
8.29755e-07
1.10953e-06
1.10751e-06
8.29726e-07
8.29915e-07
8.29613e-07
8.29801e-07
8.29922e-07
8.29577e-07
8.29809e-07
1.10971e-06
1.10761e-06
8.29805e-07
8.29678e-07
8.29687e-07
1.10769e-06
1.10966e-06
1.10759e-06
8.29861e-07
8.29887e-07
8.29717e-07
8.29743e-07
1.10957e-06
1.1075e-06
8.29745e-07
8.29934e-07
8.29601e-07
8.2979e-07
8.2994e-07
8.29568e-07
8.29799e-07
1.10969e-06
1.10759e-06
8.29819e-07
8.29669e-07
8.29679e-07
1.10768e-06
1.10966e-06
1.10756e-06
8.2989e-07
8.29917e-07
8.29708e-07
8.29732e-07
1.10957e-06
1.10747e-06
8.29774e-07
8.29964e-07
8.29594e-07
8.29785e-07
8.2997e-07
8.29556e-07
8.29787e-07
1.10966e-06
1.10763e-06
8.29849e-07
8.29663e-07
8.29668e-07
1.10768e-06
1.10962e-06
1.10735e-06
8.29929e-07
8.29951e-07
8.29314e-07
8.29337e-07
1.10954e-06
1.10726e-06
8.29812e-07
8.30001e-07
8.29193e-07
8.29381e-07
8.30007e-07
8.29163e-07
8.29389e-07
1.10966e-06
1.10742e-06
8.29885e-07
8.29255e-07
8.2926e-07
1.10747e-06
1.10928e-06
1.08724e-06
8.2965e-07
8.2967e-07
8.07317e-07
8.07335e-07
1.1092e-06
1.08719e-06
8.29526e-07
8.29721e-07
8.07274e-07
8.07304e-07
8.29726e-07
8.07299e-07
8.07369e-07
1.10935e-06
1.08724e-06
8.29593e-07
8.07309e-07
8.07313e-07
1.08728e-06
1.064e-06
7.76014e-07
7.7603e-07
1.06397e-06
7.75995e-07
7.75998e-07
3.14512e-07
3.14494e-07
3.14525e-07
7.76061e-07
1.06402e-06
7.76036e-07
3.44162e-08
5.46099e-09
2.27049e-08
2.26307e-08
1.41446e-09
4.07761e-09
3.37748e-08
1.30103e-08
1.6937e-09
4.32238e-09
1.2953e-08
2.05584e-08
5.22005e-09
3.71434e-09
8.53649e-09
7.37729e-09
1.64355e-07
5.87281e-09
2.59723e-07
1.78192e-06
3.63049e-06
7.26752e-09
2.22399e-07
6.00677e-09
3.40164e-07
1.27674e-08
1.27902e-08
1.28257e-08
1.26494e-08
1.26389e-08
1.26431e-08
1.26962e-08
1.41584e-09
1.16232e-07
5.88196e-09
4.11738e-09
1.428e-09
7.12947e-08
5.83049e-09
1.72102e-06
3.35773e-06
1.61225e-09
5.92148e-09
1.44585e-07
4.91038e-09
1.6528e-09
5.84748e-09
1.20259e-07
2.15115e-07
2.19234e-07
4.83384e-09
1.84984e-07
1.89486e-07
1.67898e-08
4.67327e-07
1.2626e-08
6.84627e-07
8.24073e-06
1.16693e-05
1.60551e-08
6.0418e-07
1.25104e-08
8.6209e-07
1.26805e-08
1.26892e-08
1.27444e-08
1.28504e-08
1.28191e-08
1.28506e-08