/*--------------------------------*- C++ -*----------------------------------*\
| =========                 |                                                 |
| \\      /  F ield         | OpenFOAM: The Open Source CFD Toolbox           |
|  \\    /   O peration     | Version:  v2012                                 |
|   \\  /    A nd           | Website:  www.openfoam.com                      |
|    \\/     M anipulation  |                                                 |
\*---------------------------------------------------------------------------*/
FoamFile
{
    version     2.0;
    format      ascii;
    class       volScalarField;
    location    "187.5";
    object      k;
}
// * * * * * * * * * * * * * * * * * * * * * * * * * * * * * * * * * * * * * //

dimensions      [0 2 -2 0 0 0 0];


internalField   nonuniform List<scalar> 
171728
(
1.6543e-06
3.11808e-07
4.50747e-07
3.57854e-07
1.64552e-06
3.06236e-07
3.83335e-07
3.42099e-07
1.68065e-06
3.04457e-07
3.58376e-07
3.29467e-07
1.72077e-06
3.04301e-07
3.54067e-07
3.19822e-07
1.7586e-06
3.0637e-07
3.5144e-07
3.11189e-07
1.79673e-06
3.1019e-07
3.51174e-07
2.99149e-07
1.83575e-06
3.15854e-07
3.52971e-07
2.83982e-07
1.87736e-06
3.23601e-07
3.57446e-07
2.73329e-07
1.92129e-06
3.33668e-07
3.66292e-07
2.66271e-07
1.96663e-06
3.46885e-07
3.77245e-07
2.61365e-07
2.01326e-06
3.63754e-07
3.91537e-07
2.57342e-07
2.05967e-06
3.81741e-07
4.07409e-07
2.55607e-07
2.10563e-06
4.03167e-07
4.27554e-07
2.55357e-07
2.15036e-06
4.27517e-07
4.52269e-07
2.57015e-07
2.19418e-06
4.60029e-07
4.81376e-07
2.62407e-07
2.23839e-06
4.99601e-07
5.15695e-07
2.7005e-07
2.28003e-06
5.44606e-07
5.58287e-07
2.83866e-07
2.32207e-06
5.98176e-07
6.11554e-07
3.13584e-07
2.36246e-06
6.64378e-07
6.76115e-07
3.58026e-07
2.40533e-06
7.48449e-07
7.64653e-07
4.49809e-07
2.44813e-06
8.68544e-07
8.81751e-07
6.20386e-07
2.49424e-06
1.02837e-06
1.04491e-06
9.07569e-07
2.54225e-06
1.24766e-06
1.2525e-06
1.34925e-06
2.58972e-06
1.54376e-06
1.54751e-06
2.0692e-06
2.64885e-06
1.93893e-06
1.91379e-06
3.11391e-06
2.70882e-06
2.41998e-06
2.39529e-06
4.51099e-06
2.78237e-06
3.02222e-06
2.97988e-06
6.40065e-06
2.87053e-06
3.76938e-06
3.69768e-06
8.56513e-06
2.96463e-06
4.60192e-06
4.52731e-06
1.11823e-05
3.09182e-06
5.62737e-06
5.50925e-06
1.36287e-05
3.22955e-06
6.77471e-06
6.65511e-06
1.61163e-05
3.41272e-06
8.00999e-06
7.99357e-06
1.85383e-05
3.61957e-06
9.34536e-06
9.28581e-06
2.07587e-05
3.86862e-06
1.08539e-05
1.08326e-05
2.27339e-05
4.17707e-06
1.25251e-05
1.25781e-05
2.46416e-05
4.56721e-06
1.43172e-05
1.43594e-05
2.63563e-05
5.04252e-06
1.62379e-05
1.62893e-05
2.79985e-05
5.60562e-06
1.81102e-05
1.8271e-05
2.94355e-05
6.32466e-06
2.02524e-05
2.04352e-05
3.11396e-05
6.99715e-06
2.17658e-05
2.18884e-05
3.20666e-05
7.45698e-06
2.2305e-05
2.23698e-05
3.20295e-05
7.78996e-06
2.26603e-05
2.27083e-05
3.17736e-05
8.64763e-06
2.41619e-05
2.41969e-05
3.24036e-05
1.05622e-05
2.69574e-05
2.69784e-05
3.42756e-05
1.33284e-05
3.01809e-05
3.01915e-05
3.65919e-05
1.6881e-05
3.35562e-05
3.35616e-05
3.91982e-05
2.01021e-05
3.60296e-05
3.60335e-05
4.11225e-05
2.21307e-05
3.73312e-05
3.73344e-05
4.20884e-05
2.31113e-05
3.78869e-05
3.78895e-05
4.24906e-05
2.34981e-05
3.80909e-05
3.80931e-05
4.2646e-05
2.36311e-05
3.81626e-05
3.81648e-05
4.27035e-05
2.36613e-05
3.81734e-05
3.81756e-05
4.27249e-05
2.36637e-05
3.8168e-05
3.81702e-05
4.26994e-05
2.36687e-05
3.81754e-05
3.81775e-05
4.27177e-05
2.36677e-05
3.81731e-05
3.81751e-05
4.27174e-05
2.36672e-05
3.81715e-05
3.8174e-05
4.27037e-05
2.36677e-05
3.8173e-05
3.8175e-05
4.27225e-05
2.36673e-05
3.81729e-05
3.8175e-05
4.27063e-05
2.36675e-05
3.81726e-05
3.81749e-05
4.27143e-05
2.36674e-05
3.81728e-05
3.81748e-05
4.27183e-05
2.36674e-05
3.81731e-05
3.81754e-05
4.27032e-05
2.36675e-05
3.81724e-05
3.81744e-05
4.27126e-05
2.36675e-05
3.81725e-05
3.81747e-05
4.27208e-05
2.36676e-05
3.81736e-05
3.81757e-05
4.27167e-05
2.36676e-05
3.81728e-05
3.81749e-05
4.27045e-05
2.36676e-05
3.81727e-05
3.81747e-05
4.27076e-05
2.36675e-05
3.81729e-05
3.81753e-05
4.27122e-05
2.36676e-05
3.8173e-05
3.81748e-05
4.27231e-05
2.36677e-05
3.81724e-05
3.81744e-05
4.27047e-05
2.36675e-05
3.81737e-05
3.81752e-05
4.27163e-05
2.36678e-05
3.81734e-05
3.81754e-05
4.27186e-05
2.36676e-05
3.81723e-05
3.81745e-05
4.27031e-05
2.36676e-05
3.81736e-05
3.81748e-05
4.27116e-05
2.36675e-05
3.81736e-05
3.81747e-05
4.27216e-05
2.36675e-05
3.81725e-05
3.81747e-05
4.27119e-05
2.36675e-05
3.81729e-05
3.81749e-05
4.27045e-05
2.36676e-05
3.81734e-05
3.81749e-05
4.271e-05
2.36675e-05
3.81733e-05
3.81753e-05
4.27187e-05
2.36675e-05
3.81729e-05
3.81749e-05
4.27194e-05
2.36675e-05
3.81725e-05
3.81746e-05
4.27155e-05
2.36675e-05
3.81727e-05
3.81747e-05
4.27078e-05
2.36675e-05
3.81728e-05
3.81748e-05
4.27044e-05
2.36674e-05
3.81728e-05
3.81746e-05
4.27088e-05
2.36673e-05
3.81728e-05
3.81746e-05
4.27113e-05
2.36672e-05
3.81725e-05
3.81745e-05
4.27071e-05
2.36672e-05
3.81725e-05
3.81746e-05
4.27085e-05
2.36672e-05
3.81727e-05
3.81748e-05
4.27152e-05
2.36672e-05
3.81731e-05
3.81748e-05
4.2719e-05
2.36672e-05
3.81735e-05
3.81756e-05
4.27173e-05
2.36673e-05
3.81738e-05
3.81759e-05
4.27127e-05
2.36674e-05
3.81747e-05
3.81764e-05
4.27104e-05
2.36676e-05
3.81761e-05
3.81777e-05
4.27159e-05
2.36674e-05
3.81779e-05
3.81799e-05
4.27174e-05
2.36597e-05
3.81685e-05
3.81702e-05
4.27096e-05
2.30876e-05
3.68741e-05
3.68734e-05
4.19989e-05
3.67723e-07
3.42464e-07
3.78646e-07
3.66738e-07
4.00492e-07
3.27731e-07
1.69743e-06
1.68632e-06
1.69905e-06
1.69547e-06
3.10768e-07
3.4469e-07
3.62404e-07
3.44961e-07
3.39078e-07
3.60361e-07
3.6485e-07
3.51262e-07
3.80767e-07
7.62816e-07
3.72932e-07
5.4849e-07
3.63716e-07
3.43273e-07
6.26119e-07
3.37417e-07
4.81718e-07
3.28561e-07
3.80994e-07
3.06722e-07
3.71372e-07
3.60581e-07
3.45443e-07
3.77932e-07
3.96023e-07
3.6981e-07
3.44832e-07
3.47765e-07
3.32906e-07
3.70928e-07
5.09876e-07
3.65917e-07
4.71774e-07
3.38161e-07
3.172e-07
4.42875e-07
3.27911e-07
3.6512e-07
3.26642e-07
3.69048e-07
3.04885e-07
3.62945e-07
3.42647e-07
3.29723e-07
3.67753e-07
3.61489e-07
3.62564e-07
3.31764e-07
3.30214e-07
3.18924e-07
3.64542e-07
4.70319e-07
3.60617e-07
4.56952e-07
3.13655e-07
3.03012e-07
3.51286e-07
3.26381e-07
3.33302e-07
3.26372e-07
3.60944e-07
3.04225e-07
3.54872e-07
3.26983e-07
3.16264e-07
3.61234e-07
3.5479e-07
3.58105e-07
3.21658e-07
3.16655e-07
3.08744e-07
3.59755e-07
4.4585e-07
3.5829e-07
4.0224e-07
3.00641e-07
2.92159e-07
3.31977e-07
3.26459e-07
3.31511e-07
3.27383e-07
3.5294e-07
3.05801e-07
3.46559e-07
3.13938e-07
3.05429e-07
3.57567e-07
3.52041e-07
3.56432e-07
3.13157e-07
3.06924e-07
3.01691e-07
3.58296e-07
3.85949e-07
3.58831e-07
3.42772e-07
2.89915e-07
2.80463e-07
3.31721e-07
3.28013e-07
3.33937e-07
3.30032e-07
3.44386e-07
3.09414e-07
3.36933e-07
3.03407e-07
2.96739e-07
3.56138e-07
3.51086e-07
3.55642e-07
3.01984e-07
3.00226e-07
2.96551e-07
3.59057e-07
3.32425e-07
3.60129e-07
3.15804e-07
2.78157e-07
2.70393e-07
3.34998e-07
3.30797e-07
3.38701e-07
3.34327e-07
3.34384e-07
3.14546e-07
3.2759e-07
2.95033e-07
2.90342e-07
3.55681e-07
3.5243e-07
3.56358e-07
2.86888e-07
2.95222e-07
2.92238e-07
3.6044e-07
3.14162e-07
3.63006e-07
3.14411e-07
2.68894e-07
2.6531e-07
3.40021e-07
3.35778e-07
3.45247e-07
3.40823e-07
3.26428e-07
3.21951e-07
3.25996e-07
2.88959e-07
2.85987e-07
3.5696e-07
3.56174e-07
3.59357e-07
2.75392e-07
2.90973e-07
2.87694e-07
3.64144e-07
3.16715e-07
3.68397e-07
3.24238e-07
2.63879e-07
2.59136e-07
3.47288e-07
3.42824e-07
3.53862e-07
3.5035e-07
3.26182e-07
3.31272e-07
3.29809e-07
2.84863e-07
2.82431e-07
3.60313e-07
3.64185e-07
3.64499e-07
2.67794e-07
2.86374e-07
2.82557e-07
3.7031e-07
3.26243e-07
3.7803e-07
3.34933e-07
2.57956e-07
2.54929e-07
3.55939e-07
3.52981e-07
3.63839e-07
3.63135e-07
3.3218e-07
3.43726e-07
3.42112e-07
2.8124e-07
2.78027e-07
3.66406e-07
3.74639e-07
3.73171e-07
2.62611e-07
2.81192e-07
2.7795e-07
3.80541e-07
3.38051e-07
3.88798e-07
3.48865e-07
2.53793e-07
2.50689e-07
3.67111e-07
3.66565e-07
3.79242e-07
3.77274e-07
3.4528e-07
3.59629e-07
3.55325e-07
2.76873e-07
2.74265e-07
3.75951e-07
3.87873e-07
3.84698e-07
2.58401e-07
2.76786e-07
2.74414e-07
3.91714e-07
3.52909e-07
4.02649e-07
3.64678e-07
2.49576e-07
2.47523e-07
3.83485e-07
3.81142e-07
3.95677e-07
3.93021e-07
3.59165e-07
3.76913e-07
3.7252e-07
2.73233e-07
2.71837e-07
3.87961e-07
4.03526e-07
3.98598e-07
2.56235e-07
2.73446e-07
2.72347e-07
4.07267e-07
3.69226e-07
4.22418e-07
3.84138e-07
2.46706e-07
2.46112e-07
3.9993e-07
3.97513e-07
4.13312e-07
4.11828e-07
3.77707e-07
3.97847e-07
3.94761e-07
2.71169e-07
2.7133e-07
4.02314e-07
4.22375e-07
4.15455e-07
2.5587e-07
2.71681e-07
2.72219e-07
4.27878e-07
3.89909e-07
4.45528e-07
4.09595e-07
2.45544e-07
2.47967e-07
4.18865e-07
4.17234e-07
4.36265e-07
4.34015e-07
4.00378e-07
4.21819e-07
4.17967e-07
2.70839e-07
2.71813e-07
4.20193e-07
4.46135e-07
4.35472e-07
2.57151e-07
2.71925e-07
2.75125e-07
4.51898e-07
4.16833e-07
4.71637e-07
4.38966e-07
2.48256e-07
2.55907e-07
4.42638e-07
4.39917e-07
4.63294e-07
4.61039e-07
4.24148e-07
4.51549e-07
4.43451e-07
2.71468e-07
2.74217e-07
4.40858e-07
4.73651e-07
4.60627e-07
2.61572e-07
2.75654e-07
2.82661e-07
4.78758e-07
4.47363e-07
5.03347e-07
4.73992e-07
2.5733e-07
2.67995e-07
4.70594e-07
4.68796e-07
4.97148e-07
4.94562e-07
4.5052e-07
4.89157e-07
4.74459e-07
2.74723e-07
2.82348e-07
4.68596e-07
5.06717e-07
4.92273e-07
2.68737e-07
2.84645e-07
2.95648e-07
5.1199e-07
4.82945e-07
5.4027e-07
5.14282e-07
2.70408e-07
2.85943e-07
5.06537e-07
5.04185e-07
5.34948e-07
5.34333e-07
4.83396e-07
5.3321e-07
5.1199e-07
2.84492e-07
2.98804e-07
5.00934e-07
5.47675e-07
5.29209e-07
2.80417e-07
2.99705e-07
3.23701e-07
5.50879e-07
5.25347e-07
5.86512e-07
5.60856e-07
2.89995e-07
3.11892e-07
5.46039e-07
5.45461e-07
5.81598e-07
5.84239e-07
5.23611e-07
5.83694e-07
5.62497e-07
3.02476e-07
3.28486e-07
5.39815e-07
5.97136e-07
5.77902e-07
3.06093e-07
3.29829e-07
3.60163e-07
5.98942e-07
5.75597e-07
6.42314e-07
6.23137e-07
3.21299e-07
3.59382e-07
5.94332e-07
5.99084e-07
6.35532e-07
6.45199e-07
5.76274e-07
6.47028e-07
6.23766e-07
3.37718e-07
3.7125e-07
5.91658e-07
6.58753e-07
6.36258e-07
3.45817e-07
3.72926e-07
4.40102e-07
6.59412e-07
6.40157e-07
7.20569e-07
6.98168e-07
3.70264e-07
4.32122e-07
6.51763e-07
6.64226e-07
7.09668e-07
7.26814e-07
6.41641e-07
7.24544e-07
7.00289e-07
3.83683e-07
4.59742e-07
6.52368e-07
7.39901e-07
7.1063e-07
4.23232e-07
4.63825e-07
5.82259e-07
7.43751e-07
7.21927e-07
8.24668e-07
8.09525e-07
4.54834e-07
5.857e-07
7.31098e-07
7.51086e-07
8.08354e-07
8.38045e-07
7.2578e-07
8.37944e-07
8.09791e-07
4.86081e-07
6.17413e-07
7.36204e-07
8.50609e-07
8.17697e-07
5.82648e-07
6.2385e-07
8.30305e-07
8.54646e-07
8.42143e-07
9.68743e-07
9.53084e-07
6.32173e-07
8.3832e-07
8.38261e-07
8.68876e-07
9.4925e-07
9.84097e-07
8.39185e-07
9.83482e-07
9.5808e-07
6.62349e-07
8.75074e-07
8.47213e-07
9.98194e-07
9.65926e-07
8.33402e-07
8.98139e-07
1.23596e-06
1.01112e-06
9.96887e-07
1.16569e-06
1.16216e-06
9.03534e-07
1.26193e-06
9.91352e-07
1.03177e-06
1.14444e-06
1.18352e-06
1.0024e-06
1.18533e-06
1.1524e-06
9.46665e-07
1.29995e-06
1.01237e-06
1.19223e-06
1.16432e-06
1.24493e-06
1.34577e-06
1.87297e-06
1.22924e-06
1.22444e-06
1.43388e-06
1.42436e-06
1.37674e-06
1.88777e-06
1.20597e-06
1.24461e-06
1.40766e-06
1.46666e-06
1.21824e-06
1.45943e-06
1.43128e-06
1.40059e-06
1.99155e-06
1.22834e-06
1.47244e-06
1.44243e-06
1.91555e-06
2.03186e-06
2.85429e-06
1.51318e-06
1.50608e-06
1.7998e-06
1.78756e-06
2.04219e-06
2.89967e-06
1.48784e-06
1.54614e-06
1.76911e-06
1.80745e-06
1.50667e-06
1.83417e-06
1.78881e-06
2.16054e-06
2.89063e-06
1.51938e-06
1.8093e-06
1.80246e-06
2.86436e-06
3.08251e-06
4.16578e-06
1.90583e-06
1.89115e-06
2.25384e-06
2.24797e-06
3.12702e-06
4.20945e-06
1.87083e-06
1.91299e-06
2.21643e-06
2.27426e-06
1.90102e-06
2.29117e-06
2.24415e-06
3.11858e-06
4.3062e-06
1.91389e-06
2.26435e-06
2.2621e-06
4.23507e-06
4.46994e-06
5.93551e-06
2.38687e-06
2.37997e-06
2.82636e-06
2.80554e-06
4.51651e-06
5.95993e-06
2.34955e-06
2.40925e-06
2.78865e-06
2.83165e-06
2.36937e-06
2.85611e-06
2.82953e-06
4.61024e-06
6.00951e-06
2.3911e-06
2.82271e-06
2.85456e-06
5.98168e-06
6.30816e-06
8.06498e-06
2.98177e-06
2.96463e-06
3.52059e-06
3.51294e-06
6.33355e-06
8.13551e-06
2.94834e-06
2.98777e-06
3.48401e-06
3.54291e-06
2.99342e-06
3.57574e-06
3.5186e-06
6.38112e-06
8.13376e-06
3.02039e-06
3.50985e-06
3.54223e-06
8.13766e-06
8.51903e-06
1.05138e-05
3.72925e-06
3.70866e-06
4.3358e-06
4.31155e-06
8.59247e-06
1.05259e-05
3.68628e-06
3.7279e-06
4.30998e-06
4.33293e-06
3.72442e-06
4.37586e-06
4.37127e-06
8.58061e-06
1.0499e-05
3.74744e-06
4.30698e-06
4.42887e-06
1.06862e-05
1.09883e-05
1.30449e-05
4.54503e-06
4.53459e-06
5.32678e-06
5.28949e-06
1.10031e-05
1.31261e-05
4.52394e-06
4.57914e-06
5.2713e-06
5.30376e-06
4.58493e-06
5.36117e-06
5.28118e-06
1.09777e-05
1.3015e-05
4.66858e-06
5.24726e-06
5.50674e-06
1.31176e-05
1.35839e-05
1.5651e-05
5.613e-06
5.55431e-06
6.42871e-06
6.3856e-06
1.36463e-05
1.5635e-05
5.55047e-06
5.53251e-06
6.3832e-06
6.37303e-06
5.53999e-06
6.47675e-06
6.35227e-06
1.35153e-05
1.55571e-05
5.80737e-06
6.34891e-06
6.65181e-06
1.56422e-05
1.61349e-05
1.80447e-05
6.71412e-06
6.68096e-06
7.70256e-06
7.61528e-06
1.61402e-05
1.80504e-05
6.67496e-06
6.71053e-06
7.65238e-06
7.72332e-06
6.63846e-06
7.69403e-06
7.60508e-06
1.6082e-05
1.81076e-05
6.94353e-06
7.66034e-06
7.867e-06
1.80268e-05
1.85576e-05
2.03755e-05
8.06297e-06
7.94018e-06
9.15669e-06
8.97106e-06
1.85284e-05
2.02467e-05
7.99445e-06
8.03392e-06
9.02269e-06
8.95264e-06
7.96898e-06
9.00098e-06
9.14347e-06
1.85971e-05
2.01749e-05
8.1662e-06
8.95407e-06
9.09648e-06
2.03114e-05
2.08261e-05
2.23187e-05
9.50907e-06
9.33137e-06
1.05601e-05
1.04549e-05
2.07074e-05
2.22881e-05
9.36832e-06
9.29159e-06
1.04572e-05
1.04626e-05
9.52817e-06
1.04537e-05
1.06276e-05
2.05989e-05
2.22226e-05
9.42411e-06
1.04129e-05
1.04439e-05
2.23001e-05
2.27442e-05
2.42476e-05
1.09317e-05
1.08535e-05
1.21242e-05
1.21213e-05
2.27228e-05
2.42458e-05
1.08559e-05
1.089e-05
1.21458e-05
1.21852e-05
1.10064e-05
1.21068e-05
1.22001e-05
2.26943e-05
2.43117e-05
1.08196e-05
1.21448e-05
1.20745e-05
2.42316e-05
2.46694e-05
2.60333e-05
1.25366e-05
1.25532e-05
1.38483e-05
1.39016e-05
2.46736e-05
2.60612e-05
1.2582e-05
1.26036e-05
1.38982e-05
1.38755e-05
1.26004e-05
1.3846e-05
1.38746e-05
2.47308e-05
2.60418e-05
1.25102e-05
1.38975e-05
1.38732e-05
2.59635e-05
2.64244e-05
2.76783e-05
1.43132e-05
1.43749e-05
1.57523e-05
1.58191e-05
2.64561e-05
2.77039e-05
1.43523e-05
1.43303e-05
1.57727e-05
1.57837e-05
1.43345e-05
1.57675e-05
1.57467e-05
2.64274e-05
2.77309e-05
1.43515e-05
1.58039e-05
1.57935e-05
2.76409e-05
2.80352e-05
2.91152e-05
1.6229e-05
1.62948e-05
1.76325e-05
1.77083e-05
2.80557e-05
2.9121e-05
1.62534e-05
1.62743e-05
1.76678e-05
1.77084e-05
1.62064e-05
1.76155e-05
1.75747e-05
2.81008e-05
2.91994e-05
1.62581e-05
1.77517e-05
1.76335e-05
2.90878e-05
2.9455e-05
3.07521e-05
1.8133e-05
1.82102e-05
1.97629e-05
1.98239e-05
2.94627e-05
3.07669e-05
1.81624e-05
1.82066e-05
1.97622e-05
1.98005e-05
1.80727e-05
1.97343e-05
1.97059e-05
2.95334e-05
3.07776e-05
1.81318e-05
1.99213e-05
1.97594e-05
3.0768e-05
3.11225e-05
3.19012e-05
2.0281e-05
2.03331e-05
2.15061e-05
2.15374e-05
3.11361e-05
3.19072e-05
2.02762e-05
2.03056e-05
2.15111e-05
2.15141e-05
2.02266e-05
2.14888e-05
2.14692e-05
3.1137e-05
3.18972e-05
2.02779e-05
2.163e-05
2.15104e-05
3.19124e-05
3.20557e-05
3.19759e-05
2.17775e-05
2.18057e-05
2.22278e-05
2.22576e-05
3.2062e-05
3.1986e-05
2.17888e-05
2.1786e-05
2.22495e-05
2.22392e-05
2.17495e-05
2.22331e-05
2.2227e-05
3.20512e-05
3.19768e-05
2.17854e-05
2.23078e-05
2.22447e-05
3.19891e-05
3.20161e-05
3.17114e-05
2.22979e-05
2.23289e-05
2.25164e-05
2.25411e-05
3.20265e-05
3.1717e-05
2.23198e-05
2.23091e-05
2.25285e-05
2.25257e-05
2.23029e-05
2.25182e-05
2.25231e-05
3.20171e-05
3.17174e-05
2.23154e-05
2.25686e-05
2.2526e-05
3.17196e-05
3.17665e-05
3.21308e-05
2.26628e-05
2.2682e-05
2.36379e-05
2.3642e-05
3.1771e-05
3.21255e-05
2.2671e-05
2.26721e-05
2.36376e-05
2.36489e-05
2.26668e-05
2.36279e-05
2.36352e-05
3.17729e-05
3.21412e-05
2.26679e-05
2.36668e-05
2.36332e-05
3.21285e-05
3.24068e-05
3.3865e-05
2.41733e-05
2.41747e-05
2.62151e-05
2.62136e-05
3.24005e-05
3.38592e-05
2.41718e-05
2.41845e-05
2.62109e-05
2.62249e-05
2.41701e-05
2.6204e-05
2.62136e-05
3.24175e-05
3.38738e-05
2.41674e-05
2.62281e-05
2.62094e-05
3.38633e-05
3.42769e-05
3.61235e-05
2.69684e-05
2.69667e-05
2.93448e-05
2.93434e-05
3.42718e-05
3.61198e-05
2.6964e-05
2.69774e-05
2.93406e-05
2.93513e-05
2.6968e-05
2.93372e-05
2.93467e-05
3.42852e-05
3.61289e-05
2.69633e-05
2.935e-05
2.93419e-05
3.6124e-05
3.65914e-05
3.87299e-05
3.01878e-05
3.01865e-05
3.27598e-05
3.27592e-05
3.65881e-05
3.87274e-05
3.0184e-05
3.01935e-05
3.27567e-05
3.27636e-05
3.01899e-05
3.27556e-05
3.27626e-05
3.65961e-05
3.87321e-05
3.01855e-05
3.27618e-05
3.27595e-05
3.87313e-05
3.91968e-05
4.08269e-05
3.35601e-05
3.35596e-05
3.55345e-05
3.55342e-05
3.91946e-05
4.08249e-05
3.35574e-05
3.35634e-05
3.55324e-05
3.55364e-05
3.35631e-05
3.55317e-05
3.55379e-05
3.91987e-05
4.08277e-05
3.35603e-05
3.55358e-05
3.55357e-05
4.08289e-05
4.11205e-05
4.19329e-05
3.60321e-05
3.60319e-05
3.70959e-05
3.70957e-05
4.11186e-05
4.19312e-05
3.60305e-05
3.60337e-05
3.70945e-05
3.70968e-05
3.60356e-05
3.70941e-05
3.70994e-05
4.11212e-05
4.19335e-05
3.60335e-05
3.70975e-05
3.70976e-05
4.19351e-05
4.20861e-05
4.24072e-05
3.73327e-05
3.73324e-05
3.77947e-05
3.77943e-05
4.20846e-05
4.24058e-05
3.73315e-05
3.73335e-05
3.77934e-05
3.77953e-05
3.73362e-05
3.77937e-05
3.77982e-05
4.20867e-05
4.24078e-05
3.73345e-05
3.77964e-05
3.77967e-05
4.24096e-05
4.24881e-05
4.25944e-05
3.78876e-05
3.78872e-05
3.80577e-05
3.80575e-05
4.24869e-05
4.25933e-05
3.78865e-05
3.78882e-05
3.80567e-05
3.80584e-05
3.78911e-05
3.80574e-05
3.80613e-05
4.24887e-05
4.2595e-05
3.78897e-05
3.80597e-05
3.80601e-05
4.25969e-05
4.26434e-05
4.26641e-05
3.80911e-05
3.80908e-05
3.81522e-05
3.8152e-05
4.26424e-05
4.2663e-05
3.80901e-05
3.80916e-05
3.81512e-05
3.81526e-05
3.80946e-05
3.81519e-05
3.81556e-05
4.26439e-05
4.26645e-05
3.80934e-05
3.81541e-05
3.81546e-05
4.26664e-05
4.2701e-05
4.269e-05
3.81629e-05
3.81627e-05
3.81741e-05
3.81738e-05
4.27e-05
4.2689e-05
3.81619e-05
3.81632e-05
3.81729e-05
3.81743e-05
3.81662e-05
3.81736e-05
3.81773e-05
4.27013e-05
4.26902e-05
3.81652e-05
3.81758e-05
3.81762e-05
4.26922e-05
4.27226e-05
4.26678e-05
3.81738e-05
3.81735e-05
3.81686e-05
3.81682e-05
4.27216e-05
4.26666e-05
3.81726e-05
3.8174e-05
3.81674e-05
3.81688e-05
3.81771e-05
3.81681e-05
3.81719e-05
4.27228e-05
4.26683e-05
3.81759e-05
3.81703e-05
3.81708e-05
4.26703e-05
4.26968e-05
4.26802e-05
3.81684e-05
3.81681e-05
3.81738e-05
3.81735e-05
4.26957e-05
4.26791e-05
3.81673e-05
3.81687e-05
3.81725e-05
3.8174e-05
3.81717e-05
3.81734e-05
3.81771e-05
4.26972e-05
4.26804e-05
3.81706e-05
3.81756e-05
3.81759e-05
4.26824e-05
4.27153e-05
4.26885e-05
3.81757e-05
3.81754e-05
3.81762e-05
3.81759e-05
4.27143e-05
4.26872e-05
3.81745e-05
3.81759e-05
3.8175e-05
3.81763e-05
3.8179e-05
3.81756e-05
3.81792e-05
4.27155e-05
4.26884e-05
3.81778e-05
3.81778e-05
3.81781e-05
4.26902e-05
4.27158e-05
4.26653e-05
3.81737e-05
3.81732e-05
3.81706e-05
3.81702e-05
4.27144e-05
4.26643e-05
3.81725e-05
3.81737e-05
3.81693e-05
3.81707e-05
3.81766e-05
3.81701e-05
3.81739e-05
4.27156e-05
4.26658e-05
3.81754e-05
3.81723e-05
3.81727e-05
4.2668e-05
4.26995e-05
4.26911e-05
3.81719e-05
3.81716e-05
3.8175e-05
3.81746e-05
4.26994e-05
4.26898e-05
3.81705e-05
3.81721e-05
3.81738e-05
3.81751e-05
3.81753e-05
3.81743e-05
3.8178e-05
4.27011e-05
4.26912e-05
3.81744e-05
3.81765e-05
3.81769e-05
4.26931e-05
4.27214e-05
4.26669e-05
3.81736e-05
3.8173e-05
3.81725e-05
3.81722e-05
4.27194e-05
4.26665e-05
3.81723e-05
3.81736e-05
3.8171e-05
3.81726e-05
3.81766e-05
3.81721e-05
3.81758e-05
4.27206e-05
4.2668e-05
3.81752e-05
3.81742e-05
3.81744e-05
4.26699e-05
4.2702e-05
4.26868e-05
3.81733e-05
3.81731e-05
3.81732e-05
3.81727e-05
4.27028e-05
4.26839e-05
3.81719e-05
3.81734e-05
3.81719e-05
3.81732e-05
3.81766e-05
3.81726e-05
3.81762e-05
4.27042e-05
4.2685e-05
3.81752e-05
3.81748e-05
3.81752e-05
4.26874e-05
4.27137e-05
4.26777e-05
3.81731e-05
3.81726e-05
3.81735e-05
3.81733e-05
4.27107e-05
4.26789e-05
3.81718e-05
3.81731e-05
3.81718e-05
3.81733e-05
3.81762e-05
3.8173e-05
3.81766e-05
4.27118e-05
4.26806e-05
3.81752e-05
3.81752e-05
3.81752e-05
4.2682e-05
4.27147e-05
4.26717e-05
3.81733e-05
3.81729e-05
3.81732e-05
3.81727e-05
4.2715e-05
4.26694e-05
3.81718e-05
3.81731e-05
3.81718e-05
3.81732e-05
3.81764e-05
3.81727e-05
3.81764e-05
4.27165e-05
4.26704e-05
3.81749e-05
3.81748e-05
3.81752e-05
4.26728e-05
4.27009e-05
4.26865e-05
3.81736e-05
3.81732e-05
3.81731e-05
3.81726e-05
4.26996e-05
4.26832e-05
3.81718e-05
3.81735e-05
3.81716e-05
3.81729e-05
3.81767e-05
3.81724e-05
3.8176e-05
4.27011e-05
4.2683e-05
3.81757e-05
3.81744e-05
3.81747e-05
4.26857e-05
4.27143e-05
4.26835e-05
3.81729e-05
3.81724e-05
3.81739e-05
3.81734e-05
4.27101e-05
4.26843e-05
3.81716e-05
3.81728e-05
3.81721e-05
3.81736e-05
3.8176e-05
3.81733e-05
3.81769e-05
4.27098e-05
4.26862e-05
3.81746e-05
3.81755e-05
3.81758e-05
4.26882e-05
4.2718e-05
4.26711e-05
3.81734e-05
3.81727e-05
3.81733e-05
3.81732e-05
4.27171e-05
4.26769e-05
3.81718e-05
3.81729e-05
3.81717e-05
3.81735e-05
3.8176e-05
3.81734e-05
3.8177e-05
4.27183e-05
4.26791e-05
3.81749e-05
3.81754e-05
3.81756e-05
4.2679e-05
4.27085e-05
4.26727e-05
3.81736e-05
3.81733e-05
3.81732e-05
3.81728e-05
4.2714e-05
4.26694e-05
3.81719e-05
3.81735e-05
3.81717e-05
3.81732e-05
3.81772e-05
3.81721e-05
3.81756e-05
4.27157e-05
4.26712e-05
3.81759e-05
3.81743e-05
3.81744e-05
4.26722e-05
4.27018e-05
4.26836e-05
3.81732e-05
3.81732e-05
3.81733e-05
3.81727e-05
4.2705e-05
4.26721e-05
3.81716e-05
3.81733e-05
3.81718e-05
3.81731e-05
3.8176e-05
3.81731e-05
3.81767e-05
4.2707e-05
4.2673e-05
3.81747e-05
3.81751e-05
3.81753e-05
4.26796e-05
4.27103e-05
4.26859e-05
3.81732e-05
3.81729e-05
3.81734e-05
3.81728e-05
4.27011e-05
4.26834e-05
3.81718e-05
3.81734e-05
3.81717e-05
3.81729e-05
3.8176e-05
3.81728e-05
3.81762e-05
4.27029e-05
4.26775e-05
3.81748e-05
3.81749e-05
3.8175e-05
4.26855e-05
4.27176e-05
4.26806e-05
3.81732e-05
3.81727e-05
3.81736e-05
3.81732e-05
4.27103e-05
4.26834e-05
3.81717e-05
3.81731e-05
3.81719e-05
3.81731e-05
3.81763e-05
3.81728e-05
3.8177e-05
4.27056e-05
4.26782e-05
3.8175e-05
3.81746e-05
3.81759e-05
4.26897e-05
4.27163e-05
4.2672e-05
3.81734e-05
3.81731e-05
3.81736e-05
3.81733e-05
4.27156e-05
4.26836e-05
3.81717e-05
3.81729e-05
3.81721e-05
3.81734e-05
3.81769e-05
3.81731e-05
3.81761e-05
4.27059e-05
4.26808e-05
3.81758e-05
3.81747e-05
3.81747e-05
4.26708e-05
4.27091e-05
4.26745e-05
3.81737e-05
3.81725e-05
3.81736e-05
3.81739e-05
4.27144e-05
4.26825e-05
3.81723e-05
3.8173e-05
3.81717e-05
3.81738e-05
3.81762e-05
3.81737e-05
3.81771e-05
4.27074e-05
4.26882e-05
3.81748e-05
3.81756e-05
3.81759e-05
4.26876e-05
4.27052e-05
4.26709e-05
3.81734e-05
3.8174e-05
3.81733e-05
3.81724e-05
4.27179e-05
4.26677e-05
3.81717e-05
3.81736e-05
3.81717e-05
3.81729e-05
3.81765e-05
3.81725e-05
3.81768e-05
4.27197e-05
4.26734e-05
3.81752e-05
3.81747e-05
3.81755e-05
4.26814e-05
4.27067e-05
4.26753e-05
3.81744e-05
3.8173e-05
3.81729e-05
3.81731e-05
4.2699e-05
4.26849e-05
3.81725e-05
3.81736e-05
3.81712e-05
3.81729e-05
3.81774e-05
3.81726e-05
3.81757e-05
4.27108e-05
4.26773e-05
3.81759e-05
3.81744e-05
3.81745e-05
4.26714e-05
4.27033e-05
4.26871e-05
3.81727e-05
3.81727e-05
3.8174e-05
3.8173e-05
4.27117e-05
4.26818e-05
3.81711e-05
3.81728e-05
3.81724e-05
3.81736e-05
3.8176e-05
3.81737e-05
3.8177e-05
4.27064e-05
4.26844e-05
3.8175e-05
3.8175e-05
3.81752e-05
4.26849e-05
4.27202e-05
4.26705e-05
3.81737e-05
3.81731e-05
3.81733e-05
3.81728e-05
4.27169e-05
4.26687e-05
3.81722e-05
3.81734e-05
3.81716e-05
3.81731e-05
3.8176e-05
3.81725e-05
3.81769e-05
4.27185e-05
4.26721e-05
3.81745e-05
3.81745e-05
3.81758e-05
4.2688e-05
4.27075e-05
4.26742e-05
3.81734e-05
3.81728e-05
3.81733e-05
3.81728e-05
4.27038e-05
4.26738e-05
3.81717e-05
3.81732e-05
3.81716e-05
3.81734e-05
3.81772e-05
3.81723e-05
3.81758e-05
4.27085e-05
4.26774e-05
3.81756e-05
3.81745e-05
3.81749e-05
4.26742e-05
4.27029e-05
4.26848e-05
3.81735e-05
3.81729e-05
3.81734e-05
3.81731e-05
4.27022e-05
4.26851e-05
3.81716e-05
3.81733e-05
3.81717e-05
3.81732e-05
3.81762e-05
3.81734e-05
3.81763e-05
4.27078e-05
4.26842e-05
3.81755e-05
3.81746e-05
3.81749e-05
4.26747e-05
4.2712e-05
4.26857e-05
3.81734e-05
3.81731e-05
3.81738e-05
3.81729e-05
4.2713e-05
4.26834e-05
3.81718e-05
3.81734e-05
3.81716e-05
3.8173e-05
3.81762e-05
3.81732e-05
3.81761e-05
4.2717e-05
4.26826e-05
3.81754e-05
3.81746e-05
3.81743e-05
4.26828e-05
4.27181e-05
4.26791e-05
3.81741e-05
3.81731e-05
3.81732e-05
3.81725e-05
4.27168e-05
4.2677e-05
3.81717e-05
3.81731e-05
3.8172e-05
3.81732e-05
3.81761e-05
3.81728e-05
3.8176e-05
4.27177e-05
4.2673e-05
3.81743e-05
3.81748e-05
3.81759e-05
4.26886e-05
4.27155e-05
4.2671e-05
3.81734e-05
3.81727e-05
3.81734e-05
3.81725e-05
4.27142e-05
4.26684e-05
3.81721e-05
3.81734e-05
3.81719e-05
3.8173e-05
3.81761e-05
3.81724e-05
3.8176e-05
4.27112e-05
4.26716e-05
3.81756e-05
3.81745e-05
3.81745e-05
4.26848e-05
4.27072e-05
4.26731e-05
3.81736e-05
3.81727e-05
3.81732e-05
3.81725e-05
4.27028e-05
4.26748e-05
3.81726e-05
3.81733e-05
3.81713e-05
3.81727e-05
3.81761e-05
3.81724e-05
3.8176e-05
4.27014e-05
4.26829e-05
3.81748e-05
3.81746e-05
3.81743e-05
4.26775e-05
4.27026e-05
4.26793e-05
3.81736e-05
3.81728e-05
3.81731e-05
3.81725e-05
4.27028e-05
4.26861e-05
3.81717e-05
3.81729e-05
3.81715e-05
3.81728e-05
3.81762e-05
3.81724e-05
3.81757e-05
4.27096e-05
4.26862e-05
3.81746e-05
3.81745e-05
3.81744e-05
4.26726e-05
4.27071e-05
4.26777e-05
3.81735e-05
3.81727e-05
3.81731e-05
3.81725e-05
4.27159e-05
4.268e-05
3.81717e-05
3.81729e-05
3.81714e-05
3.81725e-05
3.81763e-05
3.81721e-05
3.81756e-05
4.27189e-05
4.2674e-05
3.81748e-05
3.8174e-05
3.81743e-05
4.26746e-05
4.27051e-05
4.2686e-05
3.81733e-05
3.81729e-05
3.81732e-05
3.81723e-05
4.27155e-05
4.26707e-05
3.81717e-05
3.81731e-05
3.81715e-05
3.81723e-05
3.81762e-05
3.81721e-05
3.81758e-05
4.2712e-05
4.26715e-05
3.81748e-05
3.81737e-05
3.81742e-05
4.2681e-05
4.27131e-05
4.2684e-05
3.81734e-05
3.8173e-05
3.81729e-05
3.8172e-05
4.27078e-05
4.26702e-05
3.81718e-05
3.81729e-05
3.81713e-05
3.81724e-05
3.81763e-05
3.81716e-05
3.81756e-05
4.27017e-05
4.26792e-05
3.81748e-05
3.81736e-05
3.8174e-05
4.26835e-05
4.27185e-05
4.26692e-05
3.81737e-05
3.81729e-05
3.81722e-05
3.81717e-05
4.27016e-05
4.26736e-05
3.81721e-05
3.81731e-05
3.81705e-05
3.8172e-05
3.81764e-05
3.81713e-05
3.81751e-05
4.27067e-05
4.26827e-05
3.81748e-05
3.81734e-05
3.81736e-05
4.26791e-05
4.27051e-05
4.26747e-05
3.81735e-05
3.81728e-05
3.81719e-05
3.81715e-05
4.27024e-05
4.26788e-05
3.81718e-05
3.81731e-05
3.81703e-05
3.81719e-05
3.81761e-05
3.81712e-05
3.8175e-05
4.271e-05
4.26842e-05
3.81746e-05
3.81734e-05
3.81735e-05
4.2681e-05
4.27031e-05
4.26859e-05
3.81731e-05
3.81727e-05
3.8172e-05
3.81715e-05
4.27061e-05
4.2683e-05
3.81715e-05
3.8173e-05
3.81704e-05
3.81718e-05
3.8176e-05
3.81712e-05
3.81749e-05
4.27123e-05
4.26843e-05
3.81745e-05
3.81731e-05
3.81734e-05
4.26868e-05
4.27148e-05
4.26825e-05
3.81733e-05
3.81728e-05
3.81719e-05
3.81714e-05
4.27111e-05
4.26832e-05
3.81717e-05
3.81732e-05
3.81703e-05
3.81717e-05
3.81763e-05
3.81711e-05
3.81748e-05
4.27137e-05
4.26849e-05
3.81748e-05
3.81729e-05
3.81732e-05
4.26862e-05
4.27168e-05
4.26754e-05
3.81738e-05
3.81732e-05
3.81715e-05
3.81711e-05
4.27139e-05
4.26826e-05
3.81721e-05
3.81735e-05
3.81699e-05
3.81714e-05
3.81767e-05
3.81707e-05
3.81744e-05
4.2715e-05
4.26843e-05
3.8175e-05
3.81728e-05
3.8173e-05
4.26811e-05
4.27126e-05
4.26742e-05
3.81741e-05
3.81735e-05
3.81713e-05
3.81709e-05
4.27144e-05
4.26823e-05
3.81726e-05
3.8174e-05
3.81696e-05
3.81711e-05
3.81772e-05
3.81704e-05
3.81739e-05
4.27175e-05
4.26779e-05
3.81756e-05
3.81722e-05
3.81724e-05
4.26754e-05
4.27102e-05
4.26782e-05
3.81746e-05
3.81741e-05
3.81711e-05
3.81707e-05
4.27156e-05
4.26791e-05
3.8173e-05
3.81745e-05
3.81696e-05
3.81709e-05
3.81773e-05
3.81704e-05
3.8174e-05
4.27147e-05
4.26729e-05
3.8176e-05
3.8172e-05
3.81722e-05
4.26766e-05
4.27143e-05
4.2679e-05
3.81754e-05
3.8175e-05
3.8171e-05
3.81705e-05
4.27148e-05
4.26751e-05
3.81739e-05
3.81753e-05
3.81694e-05
3.81708e-05
3.81781e-05
3.81704e-05
3.81741e-05
4.27087e-05
4.2677e-05
3.81764e-05
3.81722e-05
3.81725e-05
4.26842e-05
4.27154e-05
4.26757e-05
3.81766e-05
3.81761e-05
3.81715e-05
3.81709e-05
4.27123e-05
4.26738e-05
3.8175e-05
3.81764e-05
3.81699e-05
3.81714e-05
3.81795e-05
3.81705e-05
3.81742e-05
4.27113e-05
4.26815e-05
3.81778e-05
3.81727e-05
3.81727e-05
4.2686e-05
4.27125e-05
4.26696e-05
3.81785e-05
3.8178e-05
3.81638e-05
3.81634e-05
4.27094e-05
4.26716e-05
3.81769e-05
3.81784e-05
3.81623e-05
3.81637e-05
3.81814e-05
3.81631e-05
3.81667e-05
4.27172e-05
4.26689e-05
3.81798e-05
3.81646e-05
3.81649e-05
4.26798e-05
4.27008e-05
4.23454e-05
3.81694e-05
3.81689e-05
3.78212e-05
3.78211e-05
4.27034e-05
4.23469e-05
3.81677e-05
3.81692e-05
3.78218e-05
3.78194e-05
3.8172e-05
3.78237e-05
3.78235e-05
4.2701e-05
4.23436e-05
3.81703e-05
3.78231e-05
3.78237e-05
4.23471e-05
4.19982e-05
3.68709e-05
3.68707e-05
4.1999e-05
3.6872e-05
3.6869e-05
2.30878e-05
2.30868e-05
2.30889e-05
3.6873e-05
4.19953e-05
3.68738e-05
4.4969e-06
6.33806e-07
2.96687e-06
2.96184e-06
1.02928e-07
3.08932e-07
3.70203e-06
1.71409e-06
1.02529e-07
3.47499e-07
1.71572e-06
9.65036e-07
3.65934e-07
2.7075e-07
4.36515e-07
3.00349e-07
4.96613e-06
2.56077e-07
6.63812e-06
1.49475e-05
2.35471e-05
2.88833e-07
6.07414e-06
2.5431e-07
7.9456e-06
1.64597e-06
1.65331e-06
1.64896e-06
1.6381e-06
1.62943e-06
1.63913e-06
1.63338e-06
1.01863e-07
1.12895e-06
7.35916e-07
3.08554e-07
1.0314e-07
8.25639e-07
7.29038e-07
1.46281e-05
2.23591e-05
1.14969e-07
7.65714e-07
1.97208e-06
4.30545e-07
1.14369e-07
7.53264e-07
1.8846e-06
1.89088e-06
1.92418e-06
3.52355e-07
1.87219e-06
1.91158e-06
4.94615e-07
9.8181e-06
4.20379e-07
1.26619e-05
4.06546e-05
5.12473e-05
4.69354e-07
1.16376e-05
3.98078e-07
1.47685e-05
1.63714e-06
1.64721e-06