/*--------------------------------*- C++ -*----------------------------------*\
| =========                 |                                                 |
| \\      /  F ield         | OpenFOAM: The Open Source CFD Toolbox           |
|  \\    /   O peration     | Version:  v2012                                 |
|   \\  /    A nd           | Website:  www.openfoam.com                      |
|    \\/     M anipulation  |                                                 |
\*---------------------------------------------------------------------------*/
FoamFile
{
    version     2.0;
    format      ascii;
    class       volScalarField;
    location    "187.5";
    object      nut;
}
// * * * * * * * * * * * * * * * * * * * * * * * * * * * * * * * * * * * * * //

dimensions      [0 2 -1 0 0 0 0];


internalField   nonuniform List<scalar> 
171728
(
1.92663e-05
2.1007e-06
3.60211e-06
2.29155e-06
1.92006e-05
2.12987e-06
2.89515e-06
2.30783e-06
1.97032e-05
2.2052e-06
2.72062e-06
2.34678e-06
2.02991e-05
2.28929e-06
2.81889e-06
2.41122e-06
2.08268e-05
2.39181e-06
2.90836e-06
2.47341e-06
2.13341e-05
2.50259e-06
3.00802e-06
2.45631e-06
2.18347e-05
2.62023e-06
3.10878e-06
2.36354e-06
2.23616e-05
2.74391e-06
3.21066e-06
2.31625e-06
2.29263e-05
2.87654e-06
3.34956e-06
2.29216e-06
2.35005e-05
3.02487e-06
3.48229e-06
2.27458e-06
2.40844e-05
3.19744e-06
3.62855e-06
2.24049e-06
2.46478e-05
3.34174e-06
3.75295e-06
2.21201e-06
2.51888e-05
3.49362e-06
3.89489e-06
2.17359e-06
2.56969e-05
3.63724e-06
4.05196e-06
2.12351e-06
2.61828e-05
3.84125e-06
4.20427e-06
2.06803e-06
2.66721e-05
4.06498e-06
4.33772e-06
1.97577e-06
2.70982e-05
4.2476e-06
4.47169e-06
1.86218e-06
2.75204e-05
4.38232e-06
4.5956e-06
1.82303e-06
2.7886e-05
4.51474e-06
4.68174e-06
1.7947e-06
2.82724e-05
4.61031e-06
4.82276e-06
1.95266e-06
2.86237e-05
4.86771e-06
5.03164e-06
2.48064e-06
2.8978e-05
5.22886e-06
5.42602e-06
3.34554e-06
2.92818e-05
5.82043e-06
5.90542e-06
4.66147e-06
2.94585e-05
6.69728e-06
6.80759e-06
6.9743e-06
2.97417e-05
7.9783e-06
7.86095e-06
1.01584e-05
2.98434e-05
9.49044e-06
9.39684e-06
1.45017e-05
2.99788e-05
1.14257e-05
1.12721e-05
2.02659e-05
3.01224e-05
1.3985e-05
1.36699e-05
2.66773e-05
3.00257e-05
1.66804e-05
1.63886e-05
3.499e-05
3.01623e-05
2.02666e-05
1.96641e-05
4.18432e-05
3.00746e-05
2.42901e-05
2.35575e-05
4.89678e-05
3.03108e-05
2.84956e-05
2.84103e-05
5.60067e-05
3.04875e-05
3.29344e-05
3.25383e-05
6.25578e-05
3.0773e-05
3.80345e-05
3.77282e-05
6.81235e-05
3.14057e-05
4.39306e-05
4.4042e-05
7.4147e-05
3.26569e-05
5.04208e-05
5.04011e-05
7.97586e-05
3.44377e-05
5.78544e-05
5.77463e-05
8.56409e-05
3.65213e-05
6.48931e-05
6.55777e-05
9.0737e-05
3.98002e-05
7.43538e-05
7.54024e-05
9.82058e-05
4.22426e-05
8.10138e-05
8.17693e-05
0.000103152
4.18664e-05
8.10615e-05
8.14301e-05
0.000102853
3.90491e-05
7.84767e-05
7.87303e-05
0.000100038
3.95703e-05
8.17293e-05
8.19133e-05
0.000100597
4.80141e-05
9.31655e-05
9.32752e-05
0.000107484
6.3535e-05
0.000108553
0.000108605
0.00011701
8.86512e-05
0.000127519
0.000127538
0.00012929
0.000116161
0.000143205
0.000143214
0.000139282
0.000135839
0.000152063
0.000152068
0.000144509
0.000146118
0.000155991
0.000155992
0.000146713
0.000150344
0.000157455
0.000157453
0.000147565
0.00015185
0.000157985
0.000157983
0.000147892
0.000152215
0.000158079
0.000158077
0.000148043
0.000152238
0.000158034
0.000158033
0.000147886
0.000152294
0.000158085
0.000158082
0.000147976
0.000152288
0.000158076
0.000158072
0.000148006
0.00015228
0.000158058
0.000158057
0.00014789
0.000152287
0.000158074
0.00015807
0.000148032
0.000152281
0.000158071
0.000158068
0.000147907
0.000152283
0.000158068
0.000158067
0.000147979
0.000152282
0.00015807
0.000158067
0.000147988
0.000152282
0.000158072
0.000158071
0.000147894
0.000152282
0.000158067
0.000158063
0.000147966
0.000152283
0.000158069
0.000158066
0.000148015
0.000152284
0.000158076
0.000158072
0.000147976
0.000152284
0.000158069
0.000158067
0.000147898
0.000152283
0.000158069
0.000158066
0.000147928
0.000152282
0.00015807
0.000158069
0.000147961
0.000152283
0.000158071
0.000158066
0.000148028
0.000152284
0.000158067
0.000158064
0.000147902
0.000152283
0.000158077
0.00015807
0.000147988
0.000152287
0.000158074
0.000158071
0.00014799
0.000152285
0.000158066
0.000158065
0.000147887
0.000152286
0.000158076
0.000158068
0.000147956
0.000152285
0.000158076
0.000158066
0.000148015
0.000152285
0.000158068
0.000158067
0.000147945
0.000152286
0.000158072
0.000158068
0.000147907
0.000152286
0.000158076
0.000158069
0.000147956
0.000152286
0.000158075
0.000158071
0.000148015
0.000152286
0.000158072
0.000158069
0.00014801
0.000152286
0.000158069
0.000158067
0.000147973
0.000152286
0.000158071
0.000158068
0.000147918
0.000152286
0.000158071
0.000158068
0.000147901
0.000152286
0.000158072
0.000158066
0.000147935
0.000152285
0.00015807
0.000158066
0.00014795
0.000152284
0.000158068
0.000158065
0.000147921
0.000152284
0.000158068
0.000158065
0.000147934
0.000152283
0.000158069
0.000158066
0.000147981
0.000152284
0.00015807
0.000158065
0.000148003
0.000152284
0.000158072
0.000158069
0.000147986
0.000152284
0.000158072
0.000158069
0.000147954
0.000152285
0.000158076
0.00015807
0.000147942
0.000152285
0.000158082
0.000158076
0.000147985
0.000152286
0.000158089
0.000158086
0.000147998
0.000152406
0.000158066
0.000158062
0.000147987
0.000152536
0.000157691
0.000157683
0.000149197
2.30681e-06
2.4224e-06
3.15105e-06
2.47048e-06
3.41661e-06
2.3519e-06
1.97992e-05
1.96394e-05
1.98071e-05
1.96901e-05
2.1599e-06
2.66266e-06
2.317e-06
2.51765e-06
2.36348e-06
2.31032e-06
2.28192e-06
2.3145e-06
2.62399e-06
6.48159e-06
2.6552e-06
4.07243e-06
2.45027e-06
2.39431e-06
7.65479e-06
2.60102e-06
5.14942e-06
2.58535e-06
2.74968e-06
2.10981e-06
2.77671e-06
2.30342e-06
2.29736e-06
2.57122e-06
3.02923e-06
2.59549e-06
2.32199e-06
2.28376e-06
2.27573e-06
2.67401e-06
3.7377e-06
2.73477e-06
3.84389e-06
2.34382e-06
2.24292e-06
4.48584e-06
2.61591e-06
3.26449e-06
2.70848e-06
2.80027e-06
2.18679e-06
2.8786e-06
2.27482e-06
2.28854e-06
2.61216e-06
2.71905e-06
2.66682e-06
2.35022e-06
2.25211e-06
2.27034e-06
2.75593e-06
4.06085e-06
2.81505e-06
4.50785e-06
2.21435e-06
2.22753e-06
3.07746e-06
2.73877e-06
2.89435e-06
2.83387e-06
2.90241e-06
2.26761e-06
2.9641e-06
2.2645e-06
2.28907e-06
2.68879e-06
2.79252e-06
2.76019e-06
2.40558e-06
2.25151e-06
2.3004e-06
2.84028e-06
4.47922e-06
2.92094e-06
4.01827e-06
2.21649e-06
2.2385e-06
2.9042e-06
2.86489e-06
2.98235e-06
2.95912e-06
2.98363e-06
2.36581e-06
3.01875e-06
2.26861e-06
2.30212e-06
2.78765e-06
2.88878e-06
2.86672e-06
2.47201e-06
2.28607e-06
2.36071e-06
2.95275e-06
3.79054e-06
3.04734e-06
3.17101e-06
2.22207e-06
2.21365e-06
3.01029e-06
2.99454e-06
3.11391e-06
3.089e-06
3.02511e-06
2.4801e-06
3.00747e-06
2.2839e-06
2.32692e-06
2.89129e-06
2.9829e-06
2.96811e-06
2.48076e-06
2.35024e-06
2.43601e-06
3.07671e-06
3.02403e-06
3.16316e-06
2.80298e-06
2.18946e-06
2.18778e-06
3.15134e-06
3.11992e-06
3.25331e-06
3.21472e-06
2.99154e-06
2.59424e-06
2.93671e-06
2.31174e-06
2.3726e-06
2.99477e-06
3.08555e-06
3.07704e-06
2.3997e-06
2.42523e-06
2.50286e-06
3.18832e-06
2.78378e-06
3.27491e-06
2.80327e-06
2.17323e-06
2.21958e-06
3.28355e-06
3.24605e-06
3.38006e-06
3.33804e-06
2.92898e-06
2.71969e-06
2.93885e-06
2.35998e-06
2.42348e-06
3.10693e-06
3.18793e-06
3.18349e-06
2.34236e-06
2.49007e-06
2.53481e-06
3.30517e-06
2.84379e-06
3.38321e-06
2.96364e-06
2.20321e-06
2.20835e-06
3.41266e-06
3.36887e-06
3.5019e-06
3.47249e-06
2.94118e-06
2.84599e-06
2.98524e-06
2.41194e-06
2.46131e-06
3.20379e-06
3.31864e-06
3.27214e-06
2.31261e-06
2.51729e-06
2.52714e-06
3.41323e-06
2.98483e-06
3.51591e-06
3.08057e-06
2.19379e-06
2.20852e-06
3.52344e-06
3.50284e-06
3.60058e-06
3.62113e-06
3.01349e-06
2.9906e-06
3.13525e-06
2.44579e-06
2.4611e-06
3.29807e-06
3.45222e-06
3.37589e-06
2.29369e-06
2.50562e-06
2.50374e-06
3.54364e-06
3.11095e-06
3.61814e-06
3.20854e-06
2.19132e-06
2.17522e-06
3.6326e-06
3.65552e-06
3.75765e-06
3.74677e-06
3.16772e-06
3.15525e-06
3.25859e-06
2.44297e-06
2.44344e-06
3.40678e-06
3.59057e-06
3.49344e-06
2.26166e-06
2.48183e-06
2.46795e-06
3.6418e-06
3.24408e-06
3.72689e-06
3.32512e-06
2.15275e-06
2.12203e-06
3.7976e-06
3.77669e-06
3.88728e-06
3.85004e-06
3.29251e-06
3.30067e-06
3.40842e-06
2.4226e-06
2.41451e-06
3.52245e-06
3.72506e-06
3.6034e-06
2.23189e-06
2.44265e-06
2.41816e-06
3.76662e-06
3.3563e-06
3.88698e-06
3.4547e-06
2.09806e-06
2.06126e-06
3.9142e-06
3.87694e-06
3.9838e-06
3.95181e-06
3.45367e-06
3.45733e-06
3.59786e-06
2.39331e-06
2.38e-06
3.62603e-06
3.85859e-06
3.70935e-06
2.19917e-06
2.38949e-06
2.35241e-06
3.92745e-06
3.4946e-06
4.04486e-06
3.63145e-06
2.03388e-06
2.01378e-06
4.02063e-06
3.97981e-06
4.1181e-06
4.05131e-06
3.63715e-06
3.61027e-06
3.74594e-06
2.35348e-06
2.31418e-06
3.73596e-06
4.017e-06
3.8089e-06
2.1523e-06
2.31914e-06
2.27823e-06
4.08471e-06
3.68064e-06
4.17897e-06
3.80686e-06
1.98955e-06
2.00886e-06
4.15146e-06
4.07116e-06
4.24657e-06
4.15989e-06
3.77829e-06
3.78796e-06
3.85762e-06
2.27893e-06
2.22221e-06
3.82815e-06
4.16356e-06
3.91377e-06
2.09903e-06
2.2406e-06
2.19898e-06
4.20856e-06
3.85401e-06
4.31073e-06
3.98214e-06
1.98664e-06
1.99619e-06
4.27408e-06
4.19035e-06
4.40143e-06
4.28582e-06
3.88229e-06
4.00787e-06
3.96412e-06
2.18351e-06
2.13919e-06
3.95453e-06
4.30436e-06
4.03507e-06
2.02054e-06
2.16247e-06
2.0932e-06
4.33703e-06
4.01086e-06
4.39684e-06
4.1273e-06
1.96517e-06
1.96966e-06
4.43813e-06
4.31988e-06
4.49352e-06
4.39473e-06
3.99378e-06
4.20989e-06
4.05803e-06
2.10099e-06
2.07766e-06
4.06084e-06
4.45172e-06
4.12082e-06
1.90679e-06
2.05038e-06
2.06865e-06
4.41561e-06
4.15504e-06
4.4781e-06
4.19809e-06
1.93525e-06
1.89815e-06
4.51804e-06
4.41487e-06
4.56919e-06
4.49294e-06
4.09073e-06
4.34683e-06
4.19632e-06
2.03037e-06
2.03561e-06
4.1396e-06
4.55769e-06
4.23383e-06
1.84796e-06
2.02407e-06
1.96598e-06
4.48642e-06
4.23626e-06
4.5031e-06
4.33151e-06
1.88713e-06
1.94297e-06
4.57885e-06
4.52903e-06
4.55874e-06
4.5744e-06
4.22167e-06
4.48635e-06
4.30733e-06
2.02442e-06
2.00737e-06
4.26096e-06
4.6647e-06
4.31206e-06
1.81242e-06
1.94323e-06
2.07283e-06
4.51781e-06
4.34812e-06
4.58995e-06
4.39855e-06
1.91006e-06
2.00182e-06
4.55904e-06
4.609e-06
4.59022e-06
4.68397e-06
4.33683e-06
4.57232e-06
4.38216e-06
1.97929e-06
2.16403e-06
4.31887e-06
4.77547e-06
4.36525e-06
1.90451e-06
2.09879e-06
2.43047e-06
4.62171e-06
4.4383e-06
4.74125e-06
4.62674e-06
2.01951e-06
2.42279e-06
4.59858e-06
4.71924e-06
4.67769e-06
4.89558e-06
4.43759e-06
4.82146e-06
4.61228e-06
2.20566e-06
2.60986e-06
4.42301e-06
4.9838e-06
4.5692e-06
2.41503e-06
2.52167e-06
3.15838e-06
4.77887e-06
4.69504e-06
5.04054e-06
4.93304e-06
2.54899e-06
3.19075e-06
4.71714e-06
4.93725e-06
4.95068e-06
5.18435e-06
4.64624e-06
5.11747e-06
4.95016e-06
2.71873e-06
3.36016e-06
4.60712e-06
5.29644e-06
4.90578e-06
3.13009e-06
3.33381e-06
4.37261e-06
5.1315e-06
5.03434e-06
5.52189e-06
5.52376e-06
3.34173e-06
4.48559e-06
5.03927e-06
5.31895e-06
5.43032e-06
5.68131e-06
5.06121e-06
5.63291e-06
5.41764e-06
3.5456e-06
4.68225e-06
5.03652e-06
5.74581e-06
5.41607e-06
4.39305e-06
4.68917e-06
6.3344e-06
5.7212e-06
5.71629e-06
6.29703e-06
6.2536e-06
4.83548e-06
6.38656e-06
5.61565e-06
5.84656e-06
6.17264e-06
6.55053e-06
5.63369e-06
6.43217e-06
6.28959e-06
4.92022e-06
6.90393e-06
5.61496e-06
6.59917e-06
6.27449e-06
6.54685e-06
6.7805e-06
9.43931e-06
6.52687e-06
6.50306e-06
7.45225e-06
7.39699e-06
6.79232e-06
9.64158e-06
6.41228e-06
6.792e-06
7.31693e-06
7.51479e-06
6.49168e-06
7.64869e-06
7.36215e-06
7.43758e-06
9.53581e-06
6.48618e-06
7.53843e-06
7.3527e-06
9.37341e-06
1.01177e-05
1.34245e-05
7.79223e-06
7.71818e-06
8.8703e-06
8.86911e-06
1.03166e-05
1.36095e-05
7.62964e-06
7.83952e-06
8.69764e-06
9.01008e-06
7.74839e-06
9.08647e-06
8.80827e-06
1.01754e-05
1.40807e-05
7.72849e-06
8.96921e-06
8.80831e-06
1.37735e-05
1.43121e-05
1.89105e-05
9.30199e-06
9.30187e-06
1.0735e-05
1.06363e-05
1.452e-05
1.89738e-05
9.13314e-06
9.46065e-06
1.05688e-05
1.07779e-05
9.17626e-06
1.0872e-05
1.07265e-05
1.49913e-05
1.92568e-05
9.19745e-06
1.07649e-05
1.07327e-05
1.89357e-05
1.99811e-05
2.52974e-05
1.12172e-05
1.11434e-05
1.29921e-05
1.30154e-05
2.00352e-05
2.56119e-05
1.1083e-05
1.12621e-05
1.28544e-05
1.31896e-05
1.12726e-05
1.33304e-05
1.29668e-05
2.03288e-05
2.57064e-05
1.12748e-05
1.30484e-05
1.28814e-05
2.5527e-05
2.66287e-05
3.27016e-05
1.37447e-05
1.36885e-05
1.57175e-05
1.56303e-05
2.69797e-05
3.27036e-05
1.35611e-05
1.37911e-05
1.56505e-05
1.57239e-05
1.36978e-05
1.59307e-05
1.6004e-05
2.7031e-05
3.27184e-05
1.35697e-05
1.56653e-05
1.5951e-05
3.34873e-05
3.4012e-05
3.98593e-05
1.63428e-05
1.63638e-05
1.90877e-05
1.90051e-05
3.40103e-05
4.03521e-05
1.63212e-05
1.66233e-05
1.88616e-05
1.91148e-05
1.67067e-05
1.93356e-05
1.8946e-05
3.40538e-05
3.99297e-05
1.67799e-05
1.87768e-05
1.99477e-05
4.03995e-05
4.14493e-05
4.76774e-05
2.01495e-05
1.99286e-05
2.28754e-05
2.27575e-05
4.18734e-05
4.76133e-05
1.98686e-05
1.97752e-05
2.27156e-05
2.25453e-05
1.98022e-05
2.32442e-05
2.24356e-05
4.13078e-05
4.71845e-05
2.11308e-05
2.24974e-05
2.41501e-05
4.77258e-05
4.89821e-05
5.4434e-05
2.37917e-05
2.37665e-05
2.72574e-05
2.69501e-05
4.90337e-05
5.46364e-05
2.36895e-05
2.38158e-05
2.71262e-05
2.75943e-05
2.33456e-05
2.74358e-05
2.65897e-05
4.86967e-05
5.49748e-05
2.51645e-05
2.72224e-05
2.84442e-05
5.44861e-05
5.59308e-05
6.15183e-05
2.85928e-05
2.80464e-05
3.26291e-05
3.15436e-05
5.59528e-05
6.08841e-05
2.83388e-05
2.86339e-05
3.18625e-05
3.14355e-05
2.79057e-05
3.17977e-05
3.23916e-05
5.64e-05
6.06526e-05
2.94354e-05
3.15152e-05
3.24005e-05
6.13438e-05
6.27764e-05
6.69654e-05
3.38564e-05
3.27667e-05
3.72894e-05
3.65407e-05
6.2168e-05
6.67703e-05
3.30014e-05
3.2504e-05
3.65647e-05
3.65495e-05
3.3834e-05
3.66444e-05
3.76257e-05
6.17078e-05
6.63327e-05
3.34351e-05
3.62469e-05
3.65667e-05
6.69137e-05
6.81256e-05
7.28531e-05
3.85084e-05
3.79019e-05
4.25672e-05
4.23797e-05
6.7972e-05
7.276e-05
3.79291e-05
3.81065e-05
4.25923e-05
4.28348e-05
3.89102e-05
4.24717e-05
4.30687e-05
6.77225e-05
7.30925e-05
3.778e-05
4.24934e-05
4.21925e-05
7.29219e-05
7.41226e-05
7.87792e-05
4.39867e-05
4.39143e-05
4.86512e-05
4.88017e-05
7.40568e-05
7.88631e-05
4.41791e-05
4.43056e-05
4.89235e-05
4.87162e-05
4.44411e-05
4.86495e-05
4.89137e-05
7.43589e-05
7.86914e-05
4.37628e-05
4.87198e-05
4.8771e-05
7.85309e-05
8.00228e-05
8.46788e-05
5.03777e-05
5.05842e-05
5.58977e-05
5.6155e-05
8.0135e-05
8.47918e-05
5.05848e-05
5.03637e-05
5.59749e-05
5.59473e-05
5.06169e-05
5.6046e-05
5.59824e-05
7.98859e-05
8.47986e-05
5.05926e-05
5.58702e-05
5.6172e-05
8.4477e-05
8.58591e-05
8.98284e-05
5.77351e-05
5.79948e-05
6.30209e-05
6.33939e-05
8.59474e-05
8.98389e-05
5.78372e-05
5.78811e-05
6.32211e-05
6.3434e-05
5.77071e-05
6.2969e-05
6.27243e-05
8.60725e-05
9.03017e-05
5.79383e-05
6.34458e-05
6.30269e-05
8.95896e-05
9.09398e-05
9.65947e-05
6.49911e-05
6.53963e-05
7.21194e-05
7.24722e-05
9.09616e-05
9.66731e-05
6.51605e-05
6.54161e-05
7.20853e-05
7.23553e-05
6.46625e-05
7.19519e-05
7.17689e-05
9.14186e-05
9.68542e-05
6.49749e-05
7.2979e-05
7.20723e-05
9.66085e-05
9.81758e-05
0.000102486
7.45296e-05
7.48311e-05
8.00791e-05
8.0239e-05
9.82499e-05
0.000102512
7.44594e-05
7.4681e-05
8.00675e-05
8.01086e-05
7.41823e-05
7.99608e-05
7.98103e-05
9.83739e-05
0.000102527
7.44822e-05
8.08285e-05
8.00824e-05
0.000102505
0.000103134
0.000102878
8.10936e-05
8.12292e-05
8.15204e-05
8.16669e-05
0.000103159
0.000102928
8.11292e-05
8.11255e-05
8.1654e-05
8.1573e-05
8.08779e-05
8.15661e-05
8.14868e-05
0.00010316
0.000102895
8.11242e-05
8.20046e-05
8.16247e-05
0.000102922
0.000102805
0.000100282
8.0997e-05
8.11566e-05
7.88958e-05
7.9036e-05
0.000102858
0.000100321
8.11383e-05
8.10486e-05
7.89898e-05
7.89342e-05
8.10054e-05
7.89386e-05
7.89297e-05
0.000102819
0.000100309
8.11105e-05
7.92065e-05
7.89702e-05
0.000100316
0.000100007
9.99013e-05
7.84591e-05
7.857e-05
8.00171e-05
8.00402e-05
0.000100043
9.98871e-05
7.85294e-05
7.84967e-05
8.00347e-05
8.00647e-05
7.84782e-05
7.99869e-05
7.99947e-05
0.000100034
9.9946e-05
7.85068e-05
8.01914e-05
8.00023e-05
9.98846e-05
0.00010062
0.000106024
8.1769e-05
8.17759e-05
8.99192e-05
8.99078e-05
0.000100598
0.000106003
8.17783e-05
8.18189e-05
8.99116e-05
8.99638e-05
8.17419e-05
8.98773e-05
8.98996e-05
0.000100666
0.000106062
8.17456e-05
9.00037e-05
8.9893e-05
0.000106008
0.000107497
0.000115171
9.32087e-05
9.31957e-05
0.000104311
0.000104297
0.000107479
0.000115161
9.31981e-05
9.3249e-05
0.000104299
0.000104337
9.3195e-05
0.000104284
0.000104311
0.000107533
0.000115195
9.31848e-05
0.000104349
0.000104298
0.000115168
0.000117013
0.000127184
0.000108576
0.000108563
0.000122762
0.000122753
0.000117004
0.00012718
0.000108566
0.000108599
0.000122758
0.000122774
0.000108578
0.000122758
0.000122769
0.000117033
0.000127192
0.000108567
0.000122782
0.000122765
0.000127184
0.00012929
0.000137936
0.000127522
0.000127513
0.000139924
0.000139916
0.000129287
0.000137934
0.000127519
0.00012753
0.000139927
0.000139923
0.000127529
0.00013993
0.000139935
0.000129296
0.000137936
0.000127528
0.000139941
0.000139938
0.00013794
0.000139279
0.000143881
0.000143198
0.000143189
0.000150403
0.000150395
0.000139277
0.000143881
0.000143202
0.000143194
0.000150411
0.000150394
0.000143209
0.000150416
0.000150415
0.000139278
0.000143879
0.000143213
0.000150422
0.000150421
0.000143886
0.000144505
0.000146477
0.000152049
0.00015204
0.000155308
0.000155298
0.000144505
0.000146479
0.000152058
0.000152039
0.000155317
0.000155297
0.000152061
0.000155326
0.00015532
0.000144503
0.000146475
0.000152068
0.000155328
0.000155328
0.000146483
0.000146708
0.000147507
0.000155971
0.000155961
0.00015719
0.000157181
0.00014671
0.00014751
0.000155981
0.00015596
0.0001572
0.000157179
0.000155983
0.000157213
0.000157202
0.000146706
0.000147506
0.000155992
0.000157212
0.000157213
0.000147513
0.000147559
0.000147909
0.00015743
0.000157421
0.000157879
0.00015787
0.000147562
0.000147912
0.000157442
0.000157419
0.000157891
0.000157866
0.000157442
0.000157903
0.00015789
0.000147557
0.000147906
0.000157454
0.000157901
0.000157902
0.000147914
0.000147886
0.000148084
0.000157961
0.000157952
0.000158054
0.000158045
0.000147889
0.000148088
0.000157973
0.000157948
0.000158065
0.00015804
0.000157971
0.000158077
0.000158064
0.000147883
0.00014808
0.000157984
0.000158075
0.000158076
0.000148088
0.000148039
0.000147956
0.000158055
0.000158046
0.000158015
0.000158006
0.000148042
0.000147959
0.000158066
0.000158042
0.000158026
0.000158002
0.000158066
0.000158038
0.000158026
0.000148035
0.000147954
0.000158078
0.000158036
0.000158038
0.000147962
0.00014788
0.000148
0.000158011
0.000158002
0.000158045
0.000158036
0.000147883
0.000148002
0.000158022
0.000157998
0.000158055
0.000158031
0.000158022
0.000158069
0.000158056
0.000147878
0.000147996
0.000158034
0.000158067
0.000158067
0.000148004
0.000147971
0.000148083
0.000158061
0.000158052
0.000158071
0.000158062
0.000147974
0.000148085
0.000158071
0.000158047
0.000158082
0.000158057
0.000158071
0.000158094
0.00015808
0.000147967
0.000148078
0.000158083
0.000158092
0.000158092
0.000148085
0.000148005
0.000147918
0.000158053
0.000158043
0.000158026
0.000158017
0.000148007
0.000147921
0.000158064
0.000158038
0.000158036
0.000158012
0.000158061
0.00015805
0.000158037
0.000148
0.000147915
0.000158072
0.000158047
0.000158048
0.000147923
0.000147875
0.000148095
0.000158033
0.000158025
0.000158061
0.000158051
0.000147883
0.000148098
0.000158042
0.00015802
0.000158072
0.000158047
0.000158045
0.000158083
0.000158069
0.000147879
0.000148092
0.000158058
0.000158081
0.000158082
0.000148099
0.000148035
0.000147925
0.000158051
0.000158041
0.00015804
0.000158032
0.000148033
0.000147932
0.000158062
0.000158037
0.000158049
0.000158026
0.000158059
0.000158065
0.000158051
0.000148025
0.000147926
0.00015807
0.000158062
0.000158062
0.000147933
0.00014789
0.000148068
0.000158047
0.000158039
0.000158046
0.000158036
0.000147904
0.000148061
0.000158056
0.000158033
0.000158057
0.000158032
0.000158057
0.000158068
0.000158055
0.000147899
0.000148053
0.000158068
0.000158067
0.000158068
0.000148063
0.000147985
0.000147991
0.000158045
0.000158035
0.000158048
0.000158041
0.000147977
0.000148009
0.000158056
0.000158031
0.000158056
0.000158032
0.000158054
0.000158071
0.000158058
0.000147968
0.000148006
0.000158068
0.00015807
0.000158068
0.00014801
0.000147973
0.000147968
0.000158047
0.000158038
0.000158045
0.000158035
0.000147987
0.000147959
0.000158055
0.000158031
0.000158055
0.000158031
0.000158056
0.000158069
0.000158055
0.000147983
0.00014795
0.000158066
0.000158066
0.000158067
0.000147961
0.000147893
0.000148065
0.000158048
0.00015804
0.000158045
0.000158035
0.00014789
0.000148057
0.000158055
0.000158034
0.000158054
0.000158029
0.000158058
0.000158067
0.000158054
0.000147884
0.000148039
0.000158071
0.000158064
0.000158065
0.000148051
0.000147988
0.000148034
0.000158043
0.000158034
0.000158051
0.000158041
0.00014797
0.000148054
0.000158054
0.000158029
0.000158058
0.000158035
0.000158053
0.000158074
0.00015806
0.000147953
0.000148052
0.000158064
0.000158072
0.000158073
0.000148059
0.000148003
0.000147951
0.000158048
0.000158037
0.000158046
0.000158039
0.000148011
0.000147999
0.000158056
0.00015803
0.000158055
0.000158033
0.000158054
0.000158074
0.00015806
0.000148005
0.000147998
0.000158067
0.00015807
0.00015807
0.000147989
0.000147933
0.000147974
0.000158049
0.00015804
0.000158045
0.000158036
0.000147982
0.000147953
0.000158057
0.000158033
0.000158055
0.000158031
0.000158063
0.000158065
0.00015805
0.00014798
0.000147948
0.000158073
0.000158063
0.000158062
0.000147954
0.000147898
0.000148047
0.000158045
0.000158039
0.000158046
0.000158036
0.000147921
0.000147978
0.000158054
0.000158032
0.000158056
0.000158031
0.000158053
0.000158073
0.000158059
0.000147921
0.000147964
0.000158064
0.000158069
0.000158069
0.00014801
0.000147962
0.000148055
0.000158046
0.000158037
0.000158047
0.000158037
0.000147902
0.000148055
0.000158056
0.000158033
0.000158055
0.000158029
0.000158054
0.00015807
0.000158055
0.000147896
0.000147996
0.000158065
0.000158067
0.000158066
0.00014805
0.000148005
0.000148014
0.000158045
0.000158036
0.000158048
0.00015804
0.000147968
0.000148049
0.000158055
0.00015803
0.000158057
0.000158031
0.000158055
0.00015807
0.000158061
0.000147915
0.000148004
0.000158066
0.000158066
0.000158073
0.000148067
0.000147989
0.000147958
0.000158047
0.000158039
0.000158047
0.000158041
0.000147999
0.000148059
0.000158055
0.00015803
0.000158058
0.000158033
0.00015806
0.000158073
0.000158054
0.000147919
0.000148026
0.000158073
0.000158067
0.000158065
0.000147946
0.000147939
0.000147982
0.000158049
0.000158035
0.000158048
0.000158045
0.000148001
0.000148035
0.000158059
0.00015803
0.000158055
0.000158036
0.000158055
0.000158077
0.000158062
0.000147936
0.000148067
0.000158065
0.000158073
0.000158073
0.00014806
0.000147921
0.000147946
0.000158047
0.000158046
0.000158045
0.000158034
0.000148012
0.000147942
0.000158055
0.000158035
0.000158054
0.000158029
0.000158057
0.000158067
0.000158059
0.000148017
0.000147961
0.000158068
0.000158066
0.00015807
0.000148005
0.000147918
0.000147991
0.000158053
0.000158038
0.000158043
0.000158039
0.000147881
0.000148067
0.000158061
0.000158034
0.000158052
0.00015803
0.000158063
0.000158069
0.000158051
0.000147944
0.000147998
0.000158073
0.000158065
0.000158063
0.000147947
0.000147909
0.000148061
0.000158042
0.000158036
0.000158051
0.000158039
0.000147978
0.000148036
0.000158051
0.000158029
0.000158061
0.000158035
0.000158053
0.000158078
0.000158061
0.000147925
0.000148037
0.000158066
0.000158069
0.000158069
0.000148045
0.000148017
0.000147953
0.000158049
0.000158039
0.000158046
0.000158037
0.000148005
0.000147953
0.000158059
0.000158033
0.000158055
0.000158031
0.000158054
0.000158069
0.00015806
0.000148002
0.000147957
0.000158064
0.000158066
0.000158073
0.000148055
0.000147929
0.000147988
0.000158046
0.000158037
0.000158047
0.000158037
0.000147918
0.000147992
0.000158055
0.000158031
0.000158055
0.000158033
0.000158062
0.000158068
0.000158053
0.000147932
0.000147998
0.000158072
0.000158066
0.000158066
0.000147966
0.000147912
0.000148054
0.000158047
0.000158038
0.000158048
0.00015804
0.000147915
0.000148065
0.000158055
0.000158033
0.000158056
0.000158032
0.000158055
0.000158076
0.000158057
0.000147935
0.000148039
0.00015807
0.000158067
0.000158067
0.000147982
0.000147975
0.000148047
0.000158048
0.00015804
0.00015805
0.000158038
0.000147989
0.000148044
0.000158056
0.000158033
0.000158056
0.000158031
0.000158056
0.000158075
0.000158055
0.000147997
0.000148023
0.00015807
0.000158068
0.000158063
0.000148041
0.000148005
0.000148
0.000158053
0.00015804
0.000158047
0.000158037
0.000148006
0.000147997
0.000158056
0.000158032
0.000158059
0.000158033
0.000158055
0.000158072
0.000158055
0.000147997
0.000147954
0.000158062
0.000158069
0.000158075
0.000148072
0.00014798
0.00014795
0.000158048
0.000158037
0.000158049
0.000158037
0.000147982
0.000147946
0.000158059
0.000158034
0.000158058
0.000158032
0.000158056
0.00015807
0.000158056
0.000147945
0.000147955
0.000158073
0.000158067
0.000158065
0.000148033
0.000147923
0.000147973
0.000158049
0.000158038
0.000158047
0.000158037
0.000147904
0.000148001
0.000158062
0.000158034
0.000158055
0.000158031
0.000158056
0.000158071
0.000158056
0.000147884
0.000148036
0.000158067
0.000158069
0.000158064
0.000147977
0.000147899
0.000148016
0.000158049
0.000158038
0.000158047
0.000158038
0.000147917
0.000148073
0.000158056
0.000158031
0.000158056
0.000158032
0.000158057
0.000158071
0.000158054
0.000147948
0.00014805
0.000158065
0.000158068
0.000158065
0.000147947
0.000147932
0.000148008
0.000158048
0.000158038
0.000158048
0.000158038
0.000148007
0.000148024
0.000158056
0.000158031
0.000158056
0.00015803
0.000158057
0.000158069
0.000158053
0.000148005
0.000147966
0.000158066
0.000158065
0.000158065
0.000147968
0.00014792
0.000148065
0.000158048
0.000158039
0.000158049
0.000158038
0.000147997
0.000147963
0.000158056
0.000158032
0.000158058
0.000158029
0.000158056
0.000158069
0.000158056
0.000147951
0.00014796
0.000158066
0.000158063
0.000158065
0.000148013
0.000147981
0.000148037
0.000158049
0.00015804
0.000158048
0.000158036
0.000147942
0.000147965
0.000158057
0.000158031
0.000158056
0.000158031
0.000158056
0.000158067
0.000158055
0.00014789
0.000148014
0.000158067
0.000158063
0.000158064
0.000148027
0.000148005
0.000147941
0.00015805
0.000158039
0.000158043
0.000158035
0.000147902
0.000147992
0.000158059
0.000158032
0.000158052
0.000158028
0.000158058
0.000158065
0.000158052
0.00014793
0.000148034
0.000158067
0.000158062
0.000158062
0.000147999
0.000147909
0.000147993
0.000158048
0.000158038
0.000158043
0.000158034
0.000147913
0.000148028
0.000158056
0.000158031
0.000158052
0.000158028
0.000158055
0.000158066
0.000158052
0.000147949
0.000148045
0.000158065
0.000158063
0.000158062
0.000148015
0.00014791
0.000148065
0.000158045
0.000158037
0.000158044
0.000158035
0.000147941
0.000148055
0.000158054
0.00015803
0.000158053
0.000158029
0.000158054
0.000158066
0.000158053
0.000147965
0.000148046
0.000158064
0.000158062
0.000158063
0.000148051
0.000147993
0.000148035
0.000158046
0.000158037
0.000158044
0.000158035
0.000147975
0.000148055
0.000158055
0.000158031
0.000158053
0.000158029
0.000158055
0.000158067
0.000158053
0.000147976
0.000148051
0.000158065
0.000158063
0.000158062
0.000148042
0.000148
0.000147984
0.000158048
0.000158038
0.000158043
0.000158034
0.000147993
0.000148052
0.000158057
0.000158032
0.000158052
0.000158028
0.000158057
0.000158065
0.000158051
0.000147987
0.000148042
0.000158066
0.000158063
0.000158062
0.000148004
0.000147967
0.000147978
0.000158049
0.000158039
0.000158043
0.000158035
0.000147998
0.000148047
0.000158059
0.000158034
0.000158051
0.000158027
0.000158059
0.000158064
0.00015805
0.000148
0.000147995
0.000158068
0.00015806
0.000158059
0.000147968
0.000147951
0.000148004
0.000158051
0.000158041
0.000158043
0.000158035
0.000148005
0.000148022
0.000158059
0.000158036
0.000158053
0.000158028
0.000158058
0.000158066
0.000158052
0.000147975
0.000147966
0.000158069
0.00015806
0.00015806
0.00014798
0.000147979
0.000148011
0.000158054
0.000158045
0.000158045
0.000158035
0.000147995
0.000147995
0.000158063
0.000158038
0.000158053
0.000158029
0.000158061
0.000158068
0.000158055
0.000147936
0.000147996
0.00015807
0.000158064
0.000158064
0.000148034
0.000147987
0.000147991
0.000158058
0.000158049
0.00015805
0.000158041
0.000147976
0.00014799
0.000158067
0.000158042
0.000158059
0.000158035
0.000158067
0.000158071
0.000158058
0.000147958
0.000148022
0.000158076
0.000158069
0.000158068
0.000148046
0.000147971
0.000147978
0.000158067
0.000158058
0.000158062
0.000158054
0.00014796
0.000148003
0.000158075
0.000158052
0.000158072
0.000158048
0.000158075
0.000158085
0.000158071
0.000147999
0.000147963
0.000158085
0.00015808
0.000158081
0.000148033
0.000147936
0.000148433
0.000158044
0.000158036
0.000159467
0.000159462
0.000147964
0.00014845
0.000158054
0.000158029
0.00015948
0.000159454
0.000158051
0.000159491
0.000159475
0.000147928
0.000148419
0.000158062
0.000159484
0.000159488
0.000148439
0.000149198
0.000157667
0.000157662
0.000149208
0.00015768
0.000157654
0.000152535
0.000152531
0.000152543
0.000157675
0.000149175
0.000157687
5.28819e-05
6.62041e-06
3.48915e-05
3.48874e-05
6.7409e-07
2.10651e-06
3.652e-05
2.03247e-05
5.58592e-07
2.51435e-06
2.04534e-05
4.07699e-06
2.30874e-06
1.77623e-06
2.00892e-06
1.10052e-06
1.3505e-05
1.00493e-06
1.52694e-05
1.12848e-05
1.37452e-05
1.03312e-06
1.49307e-05
9.69007e-07
1.67035e-05
1.90978e-05
1.92341e-05
1.90803e-05
1.90922e-05
1.89061e-05
1.91257e-05
1.89123e-05
6.59568e-07
9.86886e-07
8.2866e-06
2.08105e-06
6.70452e-07
8.60528e-07
8.20422e-06
1.119e-05
1.34001e-05
7.37852e-07
8.91138e-06
2.42086e-06
3.39754e-06
7.12264e-07
8.7331e-06
2.65806e-06
1.4959e-06
1.51993e-06
2.31159e-06
1.70533e-06
1.7356e-06
1.31139e-06
1.85642e-05
1.25968e-06
2.10758e-05
1.80508e-05
2.02554e-05
1.2349e-06
2.01745e-05
1.14001e-06
2.277e-05
1.90229e-05
1.92446e-05
1.90292e-05
1.95696e-05