/*--------------------------------*- C++ -*----------------------------------*\
| =========                 |                                                 |
| \\      /  F ield         | OpenFOAM: The Open Source CFD Toolbox           |
|  \\    /   O peration     | Version:  v2012                                 |
|   \\  /    A nd           | Website:  www.openfoam.com                      |
|    \\/     M anipulation  |                                                 |
\*---------------------------------------------------------------------------*/
FoamFile
{
    version     2.0;
    format      ascii;
    class       volScalarField;
    location    "187.5";
    object      p;
}
// * * * * * * * * * * * * * * * * * * * * * * * * * * * * * * * * * * * * * //

dimensions      [0 2 -2 0 0 0 0];


internalField   nonuniform List<scalar> 
171728
(
0.00352837
0.00352759
0.00352756
0.0035285
0.0034922
0.0034911
0.00349095
0.0034939
0.00345468
0.00345285
0.00345292
0.00345524
0.00341011
0.00340854
0.00340863
0.00341102
0.00336175
0.00336033
0.00336025
0.00336285
0.0033134
0.00331207
0.00331204
0.00331455
0.00326545
0.00326423
0.00326422
0.00326674
0.00321817
0.00321702
0.00321705
0.00321957
0.00317199
0.00317095
0.00317096
0.00317351
0.00312675
0.00312581
0.00312581
0.00312835
0.00308241
0.00308156
0.00308157
0.00308405
0.00303882
0.00303806
0.00303805
0.00304058
0.00299576
0.0029951
0.00299508
0.00299757
0.0029531
0.0029524
0.00295257
0.00295499
0.00291076
0.00291019
0.00291031
0.00291283
0.0028687
0.00286824
0.00286831
0.00287075
0.00282702
0.00282651
0.00282655
0.00282907
0.00278561
0.00278532
0.00278525
0.00278767
0.0027446
0.00274423
0.00274423
0.00274657
0.00270393
0.00270358
0.0027036
0.00270588
0.00266358
0.00266327
0.00266326
0.00266546
0.00262355
0.00262326
0.00262329
0.0026254
0.00258381
0.00258354
0.00258355
0.00258564
0.00254434
0.00254411
0.00254409
0.00254621
0.00250514
0.00250492
0.00250493
0.00250715
0.0024662
0.00246598
0.00246598
0.00246824
0.0024275
0.00242733
0.00242732
0.00242977
0.00238904
0.0023889
0.00238888
0.00239125
0.00235083
0.00235072
0.00235072
0.00235311
0.00231284
0.00231277
0.00231276
0.00231519
0.00227511
0.00227506
0.00227508
0.00227738
0.00223758
0.00223757
0.00223758
0.00223984
0.00220026
0.00220029
0.00220029
0.0022025
0.00216326
0.00216335
0.00216336
0.00216545
0.00212665
0.00212674
0.00212675
0.00212875
0.00209062
0.0020907
0.00209071
0.00209268
0.00205521
0.00205529
0.00205529
0.00205722
0.00202038
0.00202051
0.00202048
0.0020224
0.00198557
0.0019857
0.00198567
0.00198759
0.0019501
0.00195016
0.00195016
0.00195215
0.001914
0.00191405
0.00191406
0.00191618
0.00187788
0.00187792
0.00187793
0.00188006
0.00184266
0.00184255
0.00184256
0.00184458
0.00180835
0.001808
0.001808
0.00180993
0.00177473
0.00177414
0.00177414
0.00177597
0.00174113
0.0017404
0.0017404
0.00174218
0.00170686
0.00170629
0.00170629
0.00170812
0.00167204
0.00167171
0.00167171
0.00167363
0.00163684
0.00163668
0.00163668
0.00163867
0.00160139
0.00160132
0.00160132
0.00160335
0.00156582
0.00156577
0.00156577
0.00156783
0.00153018
0.00153014
0.00153014
0.00153221
0.00149453
0.0014945
0.0014945
0.00149656
0.00145888
0.00145885
0.00145885
0.00146092
0.00142323
0.0014232
0.0014232
0.00142526
0.00138758
0.00138755
0.00138755
0.00138962
0.00135193
0.0013519
0.0013519
0.00135396
0.00131628
0.00131625
0.00131625
0.00131831
0.00128063
0.0012806
0.0012806
0.00128266
0.00124497
0.00124494
0.00124494
0.00124701
0.00120932
0.0012093
0.0012093
0.00121136
0.00117367
0.00117364
0.00117364
0.00117571
0.00113802
0.00113799
0.00113799
0.00114006
0.00110238
0.00110235
0.00110235
0.00110441
0.00106673
0.0010667
0.0010667
0.00106876
0.00103108
0.00103104
0.00103104
0.00103311
0.000995426
0.000995396
0.000995397
0.00099746
0.000959776
0.000959745
0.000959745
0.000961809
0.000924124
0.000924092
0.000924092
0.00092616
0.000888473
0.000888443
0.000888442
0.000890506
0.000852821
0.000852794
0.000852794
0.000854858
0.000817169
0.000817138
0.00081714
0.000819206
0.000781517
0.000781486
0.000781485
0.000783549
0.000745864
0.000745837
0.000745834
0.000747898
0.000710212
0.000710182
0.000710182
0.000712248
0.00067456
0.000674528
0.000674531
0.000676595
0.000638908
0.000638879
0.000638879
0.000640942
0.000603258
0.00060323
0.000603229
0.000605291
0.000567607
0.000567578
0.000567578
0.000569641
0.000531957
0.000531925
0.000531925
0.000533992
0.000496307
0.000496276
0.000496276
0.000498343
0.000460658
0.000460628
0.000460629
0.000462693
0.000425009
0.000424979
0.00042498
0.000427042
0.000389359
0.000389332
0.000389331
0.000391393
0.00035371
0.000353681
0.00035368
0.000355744
0.000318061
0.00031803
0.00031803
0.000320093
0.000282413
0.000282381
0.000282381
0.000284442
0.000246764
0.000246733
0.000246732
0.000248791
0.000211115
0.000211086
0.000211085
0.000213142
0.000175465
0.000175437
0.000175438
0.000177487
0.000139813
0.000139786
0.000139787
0.000141825
0.000104151
0.000104133
0.000104131
0.000106152
6.84988e-05
6.84764e-05
6.84744e-05
7.04635e-05
3.36804e-05
3.31557e-05
3.31543e-05
3.49395e-05
5.49748e-06
5.7815e-06
5.78171e-06
4.69236e-06
0.00353353
0.00353148
0.00353155
0.0035334
0.00353151
0.0035315
0.00353707
0.00353713
0.00353708
0.00353707
0.00353138
0.00353137
0.00353355
0.00353154
0.00353145
0.00353344
0.00352858
0.00349863
0.00352752
0.00352762
0.0035004
0.00350044
0.00352853
0.00349854
0.00352757
0.00352752
0.00350042
0.00350044
0.00352743
0.00350076
0.00350033
0.00352858
0.00349862
0.00352751
0.00350045
0.00350034
0.0034986
0.00349391
0.00346066
0.00349084
0.003491
0.00346297
0.00346285
0.00349387
0.00346061
0.00349104
0.00349096
0.00346291
0.00346289
0.00349092
0.00346295
0.00346287
0.00349394
0.00346071
0.00349092
0.00346307
0.00346287
0.00346071
0.00345518
0.0034172
0.00345275
0.00345281
0.0034203
0.00342023
0.00345514
0.00341729
0.00345277
0.00345279
0.00342022
0.00342031
0.00345285
0.00342024
0.00342029
0.00345523
0.00341722
0.00345286
0.00342039
0.00342031
0.00341726
0.00341099
0.00336931
0.00340856
0.00340854
0.00337244
0.00337247
0.00341106
0.00336934
0.00340858
0.00340858
0.00337237
0.00337246
0.00340864
0.00337246
0.00337245
0.00341099
0.0033693
0.0034086
0.0033723
0.00337245
0.00336929
0.00336286
0.00332092
0.0033603
0.00336017
0.00332403
0.00332394
0.00336285
0.00332092
0.00336023
0.00336029
0.00332403
0.00332402
0.00336031
0.00332404
0.00332404
0.00336285
0.00332092
0.00336031
0.00332402
0.00332404
0.00332092
0.00331456
0.00327305
0.00331205
0.00331193
0.00327615
0.00327606
0.00331455
0.00327306
0.00331203
0.00331206
0.00327614
0.00327615
0.003312
0.00327613
0.00327609
0.00331456
0.00327305
0.00331199
0.00327615
0.00327608
0.00327304
0.00326675
0.00322575
0.00326423
0.00326413
0.00322872
0.00322871
0.00326675
0.00322572
0.00326423
0.00326423
0.00322872
0.00322872
0.00326425
0.00322871
0.0032287
0.00326675
0.00322576
0.00326425
0.00322873
0.0032287
0.00322574
0.00321958
0.00317952
0.00321702
0.00321696
0.00318238
0.00318233
0.00321956
0.00317954
0.00321703
0.00321705
0.00318238
0.00318237
0.00321705
0.00318239
0.00318235
0.0032196
0.00317953
0.00321707
0.00318238
0.00318235
0.00317952
0.0031735
0.00313425
0.00317095
0.00317092
0.003137
0.00313699
0.0031735
0.00313426
0.00317095
0.00317097
0.003137
0.00313701
0.00317095
0.00313701
0.00313698
0.00317351
0.00313427
0.00317097
0.00313701
0.00313699
0.00313424
0.00312836
0.0030899
0.0031258
0.0031258
0.00309254
0.00309252
0.00312836
0.00308989
0.00312579
0.00312581
0.00309254
0.00309253
0.00312579
0.00309253
0.00309253
0.00312837
0.00308989
0.00312579
0.00309253
0.00309253
0.00308984
0.00308411
0.00304628
0.00308158
0.00308156
0.00304887
0.00304889
0.00308412
0.00304631
0.00308155
0.00308158
0.00304887
0.00304887
0.00308153
0.00304889
0.00304891
0.00308412
0.00304628
0.00308152
0.00304888
0.00304892
0.00304628
0.00304062
0.00300322
0.00303807
0.00303806
0.00300578
0.00300576
0.00304065
0.00300324
0.00303807
0.00303806
0.00300578
0.00300579
0.00303805
0.00300576
0.00300581
0.00304059
0.00300322
0.00303806
0.00300579
0.00300582
0.00300319
0.00299761
0.00296056
0.00299509
0.00299507
0.00296316
0.0029631
0.00299766
0.00296051
0.0029951
0.00299508
0.00296317
0.00296313
0.00299506
0.0029631
0.00296316
0.00299761
0.00296062
0.00299506
0.00296312
0.00296317
0.00296057
0.002955
0.00291825
0.00295251
0.00295243
0.0029208
0.00292076
0.00295495
0.00291822
0.00295248
0.00295255
0.0029208
0.0029208
0.00295251
0.00292077
0.00292081
0.00295507
0.00291831
0.0029525
0.0029208
0.00292083
0.00291833
0.00291274
0.00287622
0.00291025
0.00291019
0.00287881
0.00287869
0.00291273
0.00287619
0.00291026
0.0029103
0.00287881
0.00287873
0.00291032
0.00287868
0.00287869
0.00291281
0.00287627
0.00291032
0.00287872
0.00287869
0.00287618
0.00287075
0.00283452
0.00286828
0.00286824
0.00283699
0.00283699
0.00287078
0.00283434
0.00286829
0.00286831
0.00283698
0.00283691
0.00286826
0.00283697
0.00283695
0.00287083
0.00283438
0.00286827
0.00283691
0.00283695
0.00283444
0.00282913
0.00279293
0.00282661
0.00282652
0.00279547
0.00279563
0.00282895
0.00279306
0.00282662
0.00282656
0.00279547
0.0027956
0.00282659
0.00279563
0.00279558
0.00282902
0.00279301
0.0028266
0.0027956
0.00279557
0.002793
0.00278761
0.00275186
0.00278515
0.00278532
0.00275439
0.00275441
0.00278772
0.00275185
0.00278516
0.00278525
0.0027544
0.00275443
0.00278524
0.00275441
0.00275444
0.00278767
0.00275187
0.00278524
0.00275441
0.00275443
0.00275183
0.00274662
0.00271107
0.00274424
0.00274423
0.0027137
0.0027137
0.0027466
0.00271109
0.00274424
0.00274423
0.0027137
0.00271375
0.00274421
0.0027137
0.00271374
0.00274661
0.00271107
0.00274421
0.00271374
0.00271375
0.00271108
0.00270587
0.00267061
0.00270359
0.00270358
0.00267331
0.00267333
0.00270587
0.0026706
0.00270359
0.00270358
0.0026733
0.00267333
0.00270361
0.00267333
0.0026733
0.00270586
0.0026706
0.00270361
0.00267334
0.00267331
0.00267061
0.00266546
0.00263049
0.00266327
0.00266327
0.00263322
0.00263322
0.00266546
0.00263051
0.00266326
0.00266326
0.00263323
0.00263324
0.00266325
0.00263323
0.00263325
0.00266546
0.0026305
0.00266325
0.00263325
0.00263325
0.00263049
0.0026254
0.0025907
0.00262326
0.00262325
0.00259346
0.00259347
0.00262541
0.00259069
0.00262325
0.00262327
0.00259345
0.00259344
0.00262327
0.00259346
0.00259344
0.00262542
0.00259071
0.00262327
0.00259343
0.00259344
0.00259069
0.00258565
0.00255123
0.00258355
0.00258356
0.00255393
0.00255392
0.00258565
0.00255122
0.00258354
0.00258355
0.00255394
0.00255394
0.00258355
0.00255393
0.00255393
0.00258566
0.00255124
0.00258355
0.00255394
0.00255393
0.00255123
0.00254623
0.0025121
0.0025441
0.0025441
0.0025147
0.00251469
0.00254622
0.00251211
0.0025441
0.00254409
0.00251469
0.0025147
0.00254409
0.00251469
0.00251471
0.00254621
0.00251211
0.00254409
0.0025147
0.00251471
0.00251214
0.00250712
0.00247325
0.00250492
0.00250492
0.0024757
0.0024757
0.00250713
0.00247325
0.00250492
0.00250493
0.0024757
0.0024757
0.00250494
0.0024757
0.00247569
0.00250714
0.00247325
0.00250493
0.0024757
0.00247569
0.00247321
0.00246829
0.00243463
0.002466
0.00246599
0.00243696
0.00243696
0.00246829
0.00243463
0.00246599
0.00246599
0.00243697
0.00243696
0.00246598
0.00243696
0.00243698
0.00246829
0.00243463
0.00246599
0.00243697
0.00243699
0.0024347
0.00242969
0.00239626
0.00242732
0.00242733
0.0023985
0.0023985
0.00242969
0.00239626
0.00242733
0.00242733
0.00239849
0.00239848
0.00242733
0.00239849
0.00239848
0.00242969
0.00239622
0.00242735
0.00239848
0.00239847
0.00239619
0.00239133
0.00235805
0.00238891
0.00238891
0.00236024
0.00236024
0.00239133
0.00235804
0.00238891
0.00238888
0.00236024
0.00236026
0.0023889
0.00236024
0.00236021
0.00239129
0.00235807
0.00238887
0.00236024
0.00236021
0.00235803
0.00235314
0.00232009
0.00235072
0.00235072
0.00232225
0.00232223
0.00235313
0.00232007
0.00235072
0.00235075
0.00232225
0.00232222
0.00235069
0.00232224
0.00232224
0.00235316
0.00232005
0.0023507
0.00232223
0.00232226
0.00232008
0.00231519
0.00228227
0.00231277
0.00231276
0.00228444
0.00228447
0.00231517
0.0022823
0.00231277
0.00231275
0.00228445
0.00228448
0.00231278
0.00228447
0.00228447
0.00231515
0.00228231
0.00231279
0.00228447
0.00228447
0.00228228
0.00227738
0.00224473
0.00227505
0.00227506
0.00224694
0.00224692
0.00227741
0.00224472
0.00227505
0.00227508
0.00224694
0.00224694
0.00227507
0.00224692
0.00224695
0.00227742
0.00224474
0.00227507
0.00224695
0.0022469
0.00224472
0.00223985
0.00220734
0.00223758
0.00223757
0.00220958
0.00220959
0.00223983
0.00220734
0.00223758
0.00223757
0.00220959
0.00220958
0.0022376
0.00220958
0.0022096
0.00223985
0.00220732
0.00223754
0.00220958
0.00220959
0.00220735
0.00220247
0.00217028
0.00220028
0.0022003
0.00217255
0.00217257
0.00220248
0.00217029
0.00220029
0.00220029
0.00217256
0.00217255
0.0022003
0.00217256
0.00217254
0.00220246
0.00217029
0.0022003
0.00217256
0.00217256
0.00217029
0.00216545
0.00213356
0.00216335
0.00216336
0.00213585
0.00213585
0.00216546
0.00213356
0.00216336
0.00216335
0.00213586
0.00213585
0.00216333
0.00213584
0.00213582
0.00216547
0.00213357
0.00216335
0.00213586
0.00213584
0.00213354
0.00212878
0.00209737
0.00212674
0.00212674
0.00209965
0.00209965
0.00212877
0.00209737
0.00212674
0.00212675
0.00209964
0.00209965
0.00212671
0.00209965
0.00209965
0.00212878
0.00209738
0.00212673
0.00209965
0.00209965
0.00209739
0.00209265
0.00206183
0.0020907
0.0020907
0.00206408
0.00206408
0.00209266
0.00206184
0.00209069
0.0020907
0.00206408
0.00206407
0.00209071
0.00206408
0.0020641
0.00209267
0.00206182
0.0020907
0.00206408
0.00206409
0.00206186
0.0020572
0.00202697
0.00205529
0.00205529
0.00202916
0.00202915
0.0020572
0.00202697
0.00205529
0.00205527
0.00202915
0.00202913
0.0020553
0.00202916
0.00202917
0.00205718
0.00202694
0.00205529
0.00202914
0.00202917
0.00202698
0.0020224
0.00199224
0.00202051
0.0020205
0.00199446
0.00199445
0.0020224
0.00199224
0.0020205
0.00202048
0.00199446
0.00199446
0.00202052
0.00199447
0.00199446
0.00202237
0.00199223
0.00202052
0.00199443
0.00199446
0.00199223
0.0019876
0.00195689
0.0019857
0.00198569
0.00195911
0.00195912
0.0019876
0.0019569
0.0019857
0.00198569
0.00195911
0.00195912
0.0019857
0.00195912
0.00195911
0.00198759
0.0019569
0.00198569
0.0019591
0.00195911
0.00195689
0.00195215
0.00192097
0.00195016
0.00195016
0.00192311
0.00192312
0.00195216
0.00192097
0.00195016
0.00195017
0.00192311
0.00192312
0.00195016
0.00192311
0.00192311
0.00195216
0.00192098
0.00195016
0.00192312
0.00192311
0.00192097
0.00191618
0.00188483
0.00191405
0.00191406
0.00188691
0.00188691
0.00191618
0.00188483
0.00191405
0.00191406
0.00188691
0.00188691
0.00191405
0.0018869
0.00188691
0.00191618
0.00188483
0.00191405
0.00188691
0.00188691
0.00188483
0.00188006
0.00184923
0.00187792
0.00187792
0.00185131
0.00185131
0.00188006
0.00184923
0.00187792
0.00187792
0.00185131
0.00185131
0.00187792
0.00185131
0.00185131
0.00188007
0.00184923
0.00187792
0.00185132
0.00185131
0.00184923
0.00184458
0.00181448
0.00184255
0.00184255
0.00181657
0.00181657
0.00184458
0.00181448
0.00184256
0.00184256
0.00181657
0.00181657
0.00184255
0.00181657
0.00181657
0.00184458
0.00181448
0.00184255
0.00181657
0.00181657
0.00181448
0.00180993
0.00178047
0.001808
0.001808
0.00178256
0.00178256
0.00180993
0.00178047
0.001808
0.001808
0.00178256
0.00178256
0.001808
0.00178256
0.00178256
0.00180993
0.00178047
0.001808
0.00178257
0.00178256
0.00178047
0.00177597
0.00174671
0.00177413
0.00177414
0.00174886
0.00174886
0.00177597
0.00174671
0.00177414
0.00177413
0.00174886
0.00174886
0.00177413
0.00174886
0.00174886
0.00177597
0.00174671
0.00177414
0.00174886
0.00174886
0.00174671
0.00174218
0.00171272
0.0017404
0.0017404
0.00171486
0.00171486
0.00174218
0.00171272
0.0017404
0.0017404
0.00171486
0.00171486
0.0017404
0.00171486
0.00171486
0.00174218
0.00171272
0.0017404
0.00171486
0.00171486
0.00171271
0.00170812
0.0016783
0.00170629
0.00170629
0.0016804
0.0016804
0.00170812
0.0016783
0.00170629
0.00170629
0.0016804
0.0016804
0.00170629
0.0016804
0.0016804
0.00170812
0.00167829
0.00170629
0.0016804
0.0016804
0.00167829
0.00167363
0.0016434
0.00167171
0.00167171
0.00164547
0.00164547
0.00167363
0.0016434
0.00167171
0.00167171
0.00164547
0.00164547
0.00167171
0.00164547
0.00164547
0.00167363
0.0016434
0.00167171
0.00164547
0.00164547
0.0016434
0.00163867
0.00160811
0.00163668
0.00163668
0.00161018
0.00161018
0.00163867
0.00160811
0.00163668
0.00163668
0.00161018
0.00161018
0.00163668
0.00161018
0.00161018
0.00163867
0.00160811
0.00163668
0.00161018
0.00161018
0.00160811
0.00160335
0.00157261
0.00160132
0.00160132
0.00157467
0.00157467
0.00160335
0.00157261
0.00160132
0.00160132
0.00157467
0.00157467
0.00160132
0.00157467
0.00157467
0.00160335
0.00157261
0.00160132
0.00157467
0.00157467
0.00157261
0.00156783
0.001537
0.00156577
0.00156577
0.00153906
0.00153906
0.00156783
0.001537
0.00156577
0.00156577
0.00153906
0.00153906
0.00156577
0.00153906
0.00153906
0.00156783
0.001537
0.00156577
0.00153906
0.00153906
0.001537
0.00153221
0.00150135
0.00153014
0.00153014
0.00150341
0.00150341
0.00153221
0.00150135
0.00153014
0.00153014
0.00150341
0.00150341
0.00153014
0.00150341
0.00150341
0.00153221
0.00150135
0.00153014
0.00150341
0.00150341
0.00150135
0.00149656
0.00146571
0.0014945
0.0014945
0.00146777
0.00146777
0.00149656
0.00146571
0.0014945
0.0014945
0.00146777
0.00146777
0.0014945
0.00146777
0.00146777
0.00149656
0.00146571
0.0014945
0.00146777
0.00146777
0.00146571
0.00146092
0.00143006
0.00145885
0.00145885
0.00143211
0.00143211
0.00146092
0.00143006
0.00145885
0.00145885
0.00143211
0.00143211
0.00145885
0.00143211
0.00143211
0.00146092
0.00143006
0.00145885
0.00143211
0.00143211
0.00143006
0.00142526
0.00139441
0.0014232
0.0014232
0.00139646
0.00139646
0.00142526
0.00139441
0.0014232
0.0014232
0.00139646
0.00139646
0.0014232
0.00139646
0.00139646
0.00142526
0.00139441
0.0014232
0.00139646
0.00139646
0.00139441
0.00138962
0.00135875
0.00138755
0.00138755
0.00136081
0.00136081
0.00138962
0.00135875
0.00138755
0.00138755
0.00136081
0.00136081
0.00138755
0.00136081
0.00136081
0.00138962
0.00135875
0.00138755
0.00136081
0.00136081
0.00135875
0.00135396
0.0013231
0.0013519
0.0013519
0.00132516
0.00132516
0.00135396
0.0013231
0.0013519
0.0013519
0.00132516
0.00132516
0.0013519
0.00132516
0.00132516
0.00135396
0.0013231
0.0013519
0.00132516
0.00132516
0.0013231
0.00131831
0.00128745
0.00131625
0.00131625
0.00128951
0.00128951
0.00131831
0.00128745
0.00131625
0.00131625
0.00128951
0.00128951
0.00131625
0.00128951
0.00128951
0.00131831
0.00128745
0.00131625
0.00128951
0.00128951
0.00128745
0.00128266
0.0012518
0.0012806
0.0012806
0.00125386
0.00125386
0.00128266
0.0012518
0.0012806
0.0012806
0.00125386
0.00125386
0.0012806
0.00125386
0.00125386
0.00128266
0.0012518
0.0012806
0.00125386
0.00125386
0.0012518
0.00124701
0.00121615
0.00124494
0.00124494
0.00121821
0.00121821
0.00124701
0.00121615
0.00124494
0.00124494
0.00121821
0.00121821
0.00124494
0.00121821
0.00121821
0.00124701
0.00121615
0.00124494
0.00121821
0.00121821
0.00121615
0.00121136
0.0011805
0.0012093
0.0012093
0.00118256
0.00118256
0.00121136
0.0011805
0.00120929
0.0012093
0.00118256
0.00118256
0.0012093
0.00118256
0.00118256
0.00121136
0.0011805
0.0012093
0.00118255
0.00118256
0.0011805
0.00117571
0.00114485
0.00117364
0.00117364
0.00114691
0.00114691
0.00117571
0.00114485
0.00117364
0.00117364
0.00114691
0.00114691
0.00117364
0.00114691
0.00114691
0.00117571
0.00114485
0.00117364
0.00114691
0.00114691
0.00114485
0.00114006
0.0011092
0.00113799
0.00113799
0.00111126
0.00111126
0.00114006
0.0011092
0.00113799
0.00113799
0.00111126
0.00111126
0.00113799
0.00111126
0.00111126
0.00114006
0.0011092
0.00113799
0.00111126
0.00111126
0.0011092
0.00110441
0.00107355
0.00110235
0.00110235
0.00107561
0.00107561
0.00110441
0.00107355
0.00110234
0.00110234
0.00107561
0.00107561
0.00110235
0.00107561
0.00107561
0.00110441
0.00107355
0.00110235
0.00107561
0.00107561
0.00107355
0.00106876
0.0010379
0.0010667
0.0010667
0.00103996
0.00103996
0.00106876
0.0010379
0.0010667
0.0010667
0.00103996
0.00103996
0.0010667
0.00103996
0.00103996
0.00106876
0.0010379
0.0010667
0.00103996
0.00103996
0.0010379
0.00103311
0.00100225
0.00103105
0.00103105
0.00100431
0.00100431
0.00103311
0.00100225
0.00103105
0.00103105
0.00100431
0.00100431
0.00103104
0.00100431
0.00100431
0.00103311
0.00100225
0.00103104
0.00100431
0.00100431
0.00100225
0.000997459
0.000966601
0.000995395
0.000995395
0.000968658
0.000968657
0.000997459
0.000966601
0.000995396
0.000995397
0.000968658
0.000968656
0.000995396
0.000968657
0.000968658
0.000997461
0.0009666
0.000995396
0.000968656
0.000968658
0.000966601
0.000961809
0.000930952
0.000959744
0.000959744
0.000933008
0.000933008
0.000961809
0.000930949
0.000959744
0.000959744
0.000933009
0.000933007
0.000959745
0.000933007
0.000933007
0.00096181
0.000930948
0.000959745
0.000933005
0.000933007
0.00093095
0.00092616
0.0008953
0.000924094
0.000924092
0.000897357
0.000897359
0.000926156
0.000895301
0.000924095
0.000924093
0.000897357
0.000897357
0.000924094
0.000897358
0.000897357
0.000926157
0.000895299
0.000924094
0.000897357
0.000897356
0.000895298
0.000890509
0.000859649
0.000888444
0.000888444
0.000861705
0.000861704
0.000890508
0.000859648
0.000888445
0.000888443
0.000861704
0.000861705
0.000888442
0.000861705
0.000861707
0.000890506
0.000859649
0.000888442
0.000861707
0.000861707
0.00085965
0.000854859
0.000823993
0.000852794
0.000852794
0.00082605
0.00082605
0.000854858
0.000823993
0.000852794
0.000852794
0.00082605
0.00082605
0.000852794
0.00082605
0.000826051
0.000854859
0.000823994
0.000852794
0.000826051
0.000826051
0.000823995
0.000819203
0.000788342
0.000817139
0.000817138
0.000790399
0.000790399
0.000819202
0.000788344
0.000817139
0.000817139
0.000790399
0.000790399
0.00081714
0.000790401
0.000790399
0.000819203
0.000788342
0.000817141
0.000790399
0.000790398
0.000788341
0.00078355
0.000752692
0.000781485
0.000781486
0.000754748
0.000754747
0.000783551
0.000752692
0.000781485
0.000781485
0.000754748
0.000754748
0.000781485
0.000754749
0.000754749
0.00078355
0.000752691
0.000781485
0.000754748
0.000754749
0.000752691
0.0007479
0.000717038
0.000745834
0.000745834
0.000719095
0.000719095
0.000747901
0.000717037
0.000745834
0.000745834
0.000719095
0.000719096
0.000745836
0.000719092
0.000719094
0.0007479
0.000717038
0.000745833
0.000719096
0.000719097
0.000717039
0.000712247
0.000681385
0.000710182
0.000710182
0.000683443
0.000683443
0.000712246
0.000681385
0.000710182
0.000710182
0.000683443
0.000683444
0.000710183
0.000683442
0.000683442
0.000712246
0.000681386
0.000710184
0.000683444
0.000683443
0.000681385
0.000676594
0.000645734
0.00067453
0.00067453
0.000647792
0.000647792
0.000676593
0.000645735
0.00067453
0.000674531
0.00064779
0.000647791
0.000674529
0.000647793
0.000647792
0.000676594
0.000645734
0.000674532
0.000647791
0.000647789
0.000645733
0.000640942
0.000610084
0.00063888
0.00063888
0.00061214
0.000612139
0.000640942
0.000610084
0.000638878
0.000638879
0.00061214
0.00061214
0.000638879
0.000612141
0.000612141
0.000640943
0.000610085
0.000638878
0.00061214
0.000612141
0.000610082
0.000605292
0.000574434
0.000603228
0.000603228
0.00057649
0.000576489
0.000605293
0.000574434
0.000603227
0.000603227
0.000576491
0.00057649
0.000603228
0.000576488
0.000576489
0.000605293
0.000574433
0.000603226
0.000576488
0.000576491
0.000574433
0.000569643
0.000538782
0.000567577
0.000567577
0.00054084
0.000540839
0.000569643
0.000538782
0.000567579
0.000567578
0.000540838
0.000540838
0.000567577
0.000540838
0.00054084
0.000569643
0.00053878
0.000567578
0.000540837
0.000540839
0.000538784
0.000533993
0.000503131
0.000531929
0.000531928
0.000505188
0.000505188
0.000533991
0.000503132
0.000531928
0.000531927
0.000505187
0.000505188
0.000531927
0.00050519
0.000505191
0.00053399
0.000503132
0.000531927
0.00050519
0.000505189
0.000503134
0.000498341
0.000467482
0.000496278
0.000496277
0.000469538
0.000469539
0.000498339
0.000467484
0.000496276
0.000496276
0.000469538
0.00046954
0.000496279
0.000469541
0.00046954
0.00049834
0.000467485
0.000496277
0.000469542
0.00046954
0.000467483
0.000462691
0.000431832
0.000460627
0.000460627
0.000433891
0.000433892
0.000462691
0.000431836
0.000460626
0.000460628
0.000433891
0.00043389
0.000460629
0.000433892
0.00043389
0.000462693
0.000431834
0.000460629
0.000433891
0.00043389
0.000431833
0.00042704
0.000396186
0.000424977
0.000424979
0.000398243
0.000398242
0.000427043
0.000396186
0.000424977
0.000424978
0.000398243
0.000398241
0.000424979
0.000398242
0.000398242
0.000427043
0.000396184
0.00042498
0.00039824
0.00039824
0.000396184
0.000391393
0.000360537
0.000389331
0.000389331
0.000362592
0.00036259
0.000391395
0.000360535
0.000389331
0.00038933
0.000362591
0.000362591
0.000389331
0.00036259
0.00036259
0.000391393
0.000360534
0.000389331
0.00036259
0.00036259
0.000360535
0.000355746
0.000324885
0.000353683
0.000353682
0.00032694
0.00032694
0.000355744
0.000324885
0.000353683
0.000353681
0.00032694
0.00032694
0.000353682
0.00032694
0.00032694
0.000355743
0.000324885
0.000353681
0.000326941
0.00032694
0.000324885
0.000320093
0.000289236
0.000318032
0.000318031
0.000291292
0.000291291
0.000320093
0.000289236
0.000318031
0.000318031
0.000291292
0.000291292
0.000318031
0.000291292
0.000291293
0.000320092
0.000289236
0.00031803
0.000291293
0.000291293
0.000289237
0.000284441
0.00025359
0.000282381
0.000282381
0.000255645
0.000255644
0.000284441
0.000253589
0.000282381
0.000282381
0.000255645
0.000255645
0.000282381
0.000255645
0.000255645
0.000284442
0.000253588
0.000282381
0.000255643
0.000255645
0.00025359
0.000248792
0.000217943
0.000246733
0.000246732
0.000219996
0.000219995
0.000248791
0.000217942
0.000246733
0.000246733
0.000219996
0.000219996
0.000246734
0.000219996
0.000219996
0.000248791
0.000217942
0.000246733
0.000219996
0.000219996
0.000217943
0.000213141
0.000182295
0.000211086
0.000211084
0.000184346
0.000184346
0.000213139
0.000182294
0.000211086
0.000211086
0.000184345
0.000184345
0.000211088
0.000184344
0.000184344
0.00021314
0.000182295
0.000211086
0.000184345
0.000184345
0.000182295
0.000177486
0.000146648
0.000175437
0.000175436
0.000148695
0.000148695
0.000177484
0.000146648
0.000175438
0.000175438
0.000148694
0.000148694
0.000175438
0.000148693
0.000148693
0.000177487
0.000146648
0.000175439
0.000148692
0.000148692
0.000146647
0.000141825
0.000110998
0.000139788
0.000139787
0.000113038
0.000113039
0.000141825
0.000110999
0.000139788
0.000139788
0.000113038
0.000113038
0.000139786
0.000113039
0.000113039
0.000141826
0.000110997
0.000139787
0.000113038
0.000113038
0.000110997
0.000106153
7.53434e-05
0.000104134
0.000104134
7.73763e-05
7.73759e-05
0.000106153
7.53444e-05
0.000104134
0.000104134
7.73752e-05
7.7375e-05
0.000104132
7.73765e-05
7.73758e-05
0.000106152
7.53421e-05
0.000104131
7.73767e-05
7.73762e-05
7.53423e-05
7.0464e-05
3.97744e-05
6.84753e-05
6.84753e-05
4.18214e-05
4.18221e-05
7.04645e-05
3.97748e-05
6.84742e-05
6.84734e-05
4.18198e-05
4.18186e-05
6.84748e-05
4.18201e-05
4.18176e-05
7.04629e-05
3.97718e-05
6.84745e-05
4.18177e-05
4.18166e-05
3.97706e-05
3.49433e-05
7.76545e-06
3.31574e-05
3.31577e-05
1.05228e-05
1.05221e-05
3.49431e-05
7.7653e-06
3.3156e-05
3.31539e-05
1.0523e-05
1.05169e-05
3.31525e-05
1.05224e-05
1.05163e-05
3.49408e-05
7.76182e-06
3.31529e-05
1.05193e-05
1.05194e-05
7.76091e-06
4.69508e-06
5.78357e-06
5.78152e-06
4.69552e-06
5.78028e-06
5.77791e-06
5.49737e-06
5.49519e-06
5.49523e-06
5.77878e-06
4.69377e-06
5.77974e-06
0.00354059
0.00354359
0.00354233
0.0035423
0.00356782
0.00354422
0.00357297
0.00354384
0.00356757
0.00354411
0.00354374
0.00357249
0.00355476
0.00357982
0.00357602
0.00351226
0.00352622
0.00352998
0.00350436
0.00350263
0.0035078
0.00351217
0.003526
0.00352999
0.00350433
0.00352842
0.00352838
0.00352834
0.00350124
0.00350102
0.00350122
0.00350122
0.00351169
0.0035242
0.00352893
0.00351932
0.003531
0.00350907
0.00351954
0.00350305
0.00350798
0.00351172
0.00352891
0.00352429
0.00351938
0.00353116
0.0035196
0.00350916
0.00352958
0.00352987
0.0035165
0.00350873
0.00350885
0.00348481
0.00349873
0.00349854
0.00348276
0.00349583
0.00348162
0.00348475
0.00349862
0.00349856
0.00348288
0.00349197
0.00349216
0.00349219
0.00346462
0.00346454
0.00346462
0.00346464
0.00348236
0.00349683
0.00349087
0.0034817
0.0034957
0.00348299
0.00348172
0.00349587
0.00348179
0.00348241
0.00349087
0.00349744
0.00348189
0.00349582
0.00348183
0.00348297
0.00349888
0.0034989
0.00348036
0.00348349
0.00348348
0.00344231
0.00345717
0.00345813
0.00344109
0.00345615
0.00343979
0.00344238
0.00345721
0.00345816
0.00344122
0.00345459
0.00345469
0.00345469
0.00342183
0.00342183
0.00342184
0.00342185
0.00344115
0.00345668
0.00345291
0.00344247
0.00345585
0.00344148
0.00344238
0.0034561
0.0034403
0.00344117
0.00345296
0.00345662
0.00344246
0.00345589
0.00344245
0.00344176
0.00345747
0.00345746
0.00343982
0.00344152
0.00344148
0.0033957
0.00341235
0.00341389
0.00339439
0.00341205
0.00339412
0.00339569
0.00341233
0.00341391
0.0033945
0.00341012
0.00341012
0.00341012
0.00337391
0.00337392
0.00337391
0.00337391
0.00339482
0.00341224
0.00340859
0.00339669
0.00341175
0.00339507
0.00339667
0.00341173
0.00339383
0.00339475
0.00340858
0.00341205
0.00339656
0.00341174
0.00339662
0.00339445
0.00341251
0.0034125
0.0033935
0.00339454
0.00339452
0.00334688
0.00336385
0.00336504
0.00334565
0.00336365
0.00334513
0.0033469
0.00336392
0.00336507
0.00334567
0.00336175
0.00336176
0.00336176
0.00332544
0.00332544
0.00332544
0.00332545
0.00334628
0.00336391
0.00336032
0.00334814
0.00336361
0.00334635
0.0033482
0.00336346
0.00334531
0.00334627
0.00336028
0.00336379
0.00334813
0.00336357
0.00334817
0.00334629
0.00336396
0.00336395
0.00334504
0.00334572
0.00334573
0.00329809
0.00331529
0.00331629
0.00329729
0.00331512
0.00329693
0.00329812
0.0033153
0.0033163
0.00329729
0.0033134
0.0033134
0.0033134
0.0032774
0.0032774
0.0032774
0.0032774
0.00329796
0.00331533
0.00331211
0.00330004
0.00331515
0.00329794
0.00330016
0.00331501
0.00329704
0.00329797
0.00331211