/*--------------------------------*- C++ -*----------------------------------*\
| =========                 |                                                 |
| \\      /  F ield         | OpenFOAM: The Open Source CFD Toolbox           |
|  \\    /   O peration     | Version:  v2012                                 |
|   \\  /    A nd           | Website:  www.openfoam.com                      |
|    \\/     M anipulation  |                                                 |
\*---------------------------------------------------------------------------*/
FoamFile
{
    version     2.0;
    format      ascii;
    class       volScalarField;
    location    "100";
    object      epsilon;
}
// * * * * * * * * * * * * * * * * * * * * * * * * * * * * * * * * * * * * * //

dimensions      [0 2 -3 0 0 0 0];


internalField   nonuniform List<scalar> 
171728
(
1.23079e-07
2.21631e-07
3.39456e-07
2.21254e-07
2.20982e-07
2.22892e-07
3.40974e-07
8.75777e-06
8.75896e-06
3.40296e-06
1.23297e-07
1.8365e-05
2.67241e-06
1.82945e-05
1.8289e-05
4.99002e-06
4.98671e-06
2.67078e-06
2.6697e-06
1.50271e-07
1.03305e-06
8.7882e-06
3.43767e-06
1.51285e-07
2.68316e-06
1.04944e-06
5.01731e-06
4.98767e-06
1.82935e-05
8.76116e-06
8.75799e-06
7.05957e-06
2.21553e-05
2.21592e-05
8.75908e-06
7.06314e-06
7.06202e-06
2.21528e-05
1.19488e-05
3.40297e-06
4.23928e-06
1.05692e-05
4.23874e-06
1.05702e-05
1.19478e-05
1.83683e-05
1.82981e-05
1.82921e-05
3.78392e-06
1.80365e-06
4.98949e-06
8.87479e-06
8.87535e-06
1.80301e-06
3.78697e-06
3.77918e-06
1.79046e-06
4.98583e-06
8.87206e-06
8.87211e-06
1.79001e-06
3.78254e-06
9.60277e-06
2.1796e-05
2.17939e-05
2.18015e-05
2.17992e-05
9.60399e-06
2.22524e-05
8.78867e-06
7.05798e-06
7.05683e-06
2.22457e-05
1.20289e-05
3.43701e-06
1.06076e-05
4.27609e-06
1.06083e-05
4.2754e-06
1.20278e-05
3.78734e-06
1.81223e-06
5.01636e-06
8.90095e-06
8.90133e-06
1.81149e-06
3.79136e-06
3.78093e-06
1.80278e-06
4.98689e-06
8.87193e-06
1.80206e-06
8.87233e-06
3.7856e-06
9.59809e-06
2.17971e-05
2.17865e-05
2.18028e-05
2.17922e-05
9.59913e-06
1.82967e-05
8.76148e-06
1.05441e-07
1.59734e-06
7.09808e-07
7.07079e-07
3.38581e-07
7.088e-07
7.06163e-07
1.60118e-06
1.59799e-06
7.12632e-07
7.10031e-07
3.39674e-07
7.09023e-07
7.11613e-07
1.60173e-06
1.05561e-07
6.18824e-07
9.43307e-07
2.67135e-06
1.94824e-06
9.42324e-07
1.94746e-06
6.19957e-07
6.1607e-07
9.42538e-07
2.66965e-06
1.94154e-06
1.94021e-06
9.41557e-07
6.1711e-07
6.1268e-07
9.39427e-07
2.6686e-06
1.93641e-06
1.93543e-06
9.38552e-07
6.15352e-07
4.37555e-07
1.03264e-06
1.31712e-06
3.62981e-07
1.3164e-06
3.62424e-07
4.38593e-07
6.2384e-07
9.5015e-07
2.68201e-06
1.96e-06
1.95903e-06
9.49133e-07
6.26511e-07
4.48931e-07
1.04891e-06
3.67814e-07
1.35107e-06
3.67236e-07
1.35036e-06
4.5004e-07
4.95568e-07
4.97416e-07
4.97422e-07
4.99636e-07
4.45592e-07
4.53893e-07
4.53927e-07
4.64048e-07
4.03804e-07
4.18698e-07
4.18799e-07
4.39662e-07
3.68427e-07
3.88694e-07
3.8881e-07
4.17751e-07
3.38076e-07
3.62167e-07
3.6226e-07
3.96012e-07
3.11688e-07
3.38265e-07
3.38326e-07
3.7428e-07
2.88485e-07
3.16588e-07
3.16601e-07
3.53226e-07
2.6791e-07
2.96937e-07
2.96917e-07
3.33792e-07
2.49548e-07
2.79229e-07
2.79215e-07
3.16036e-07
2.33091e-07
2.63475e-07
2.63481e-07
3.00561e-07
2.18307e-07
2.49698e-07
2.4972e-07
2.87592e-07
2.05018e-07
2.37907e-07
2.37935e-07
2.78034e-07
1.93086e-07
2.28107e-07
2.28133e-07
2.71383e-07
1.82401e-07
2.20302e-07
2.20325e-07
2.6759e-07
1.72877e-07
2.14504e-07
2.14524e-07
2.6721e-07
1.64446e-07
2.10742e-07
2.1076e-07
2.70181e-07
1.57051e-07
2.08974e-07
2.08986e-07
2.76167e-07
1.50625e-07
2.08956e-07
2.0895e-07
2.84311e-07
1.45059e-07
2.10134e-07
2.10108e-07
2.93374e-07
1.40201e-07
2.11803e-07
2.11772e-07
3.0227e-07
1.35924e-07
2.1353e-07
2.13444e-07
3.10059e-07
1.32212e-07
2.15266e-07
2.15135e-07
3.1697e-07
1.29139e-07
2.17043e-07
2.1693e-07
3.23262e-07
1.26732e-07
2.18453e-07
2.18337e-07
3.28818e-07
1.24974e-07
2.19159e-07
2.18969e-07
3.32353e-07
1.23821e-07
2.19337e-07
2.19087e-07
3.33464e-07
1.23197e-07
2.19465e-07
2.19164e-07
3.33507e-07
1.22953e-07
2.19528e-07
2.19198e-07
3.33372e-07
1.22905e-07
2.19659e-07
2.19306e-07
3.33434e-07
1.22901e-07
2.19907e-07
2.19507e-07
3.33896e-07
1.22912e-07
2.20166e-07
2.19828e-07
3.34691e-07
1.22946e-07
2.20425e-07
2.20069e-07
3.35579e-07
1.22988e-07
2.20661e-07
2.20246e-07
3.3637e-07
1.23034e-07
2.20878e-07
2.20403e-07
3.36962e-07
1.23075e-07
2.21081e-07
2.20534e-07
3.37677e-07
1.23119e-07
2.2126e-07
2.20637e-07
3.3827e-07
1.2314e-07
2.21413e-07
2.20802e-07
3.3871e-07
1.23147e-07
2.21512e-07
2.20949e-07
3.39084e-07
1.23135e-07
2.21554e-07
2.21106e-07
3.39386e-07
1.23124e-07
2.21568e-07
2.21245e-07
3.3927e-07
1.23106e-07
2.21575e-07
2.21332e-07
3.39117e-07
1.23097e-07
2.21582e-07
2.2139e-07
3.38775e-07
1.23094e-07
2.21594e-07
2.21416e-07
3.38576e-07
1.2309e-07
2.21606e-07
2.2145e-07
3.38496e-07
1.23085e-07
2.21591e-07
2.21505e-07
3.38727e-07
1.23082e-07
2.21579e-07
2.21574e-07
3.38738e-07
1.23082e-07
2.2157e-07
2.21615e-07
3.38704e-07
5.06422e-07
5.05559e-07
5.05554e-07
5.06392e-07
5.05547e-07
5.05558e-07
5.09644e-07
5.09644e-07
5.09644e-07
5.09642e-07
5.05553e-07
5.05532e-07
5.06416e-07
5.05553e-07
5.0556e-07
5.06409e-07
4.99616e-07
4.67509e-07
4.9741e-07
4.97423e-07
4.63878e-07
4.63861e-07
4.99623e-07
4.67432e-07
4.97428e-07
4.97424e-07
4.63992e-07
4.63874e-07
4.97432e-07
4.63851e-07
4.64129e-07
4.99617e-07
4.67486e-07
4.97418e-07
4.63865e-07
4.63875e-07
4.67543e-07
4.6402e-07
4.41746e-07
4.53946e-07
4.53899e-07
4.27062e-07
4.26932e-07
4.63939e-07
4.41647e-07
4.54055e-07
4.53918e-07
4.27097e-07
4.26939e-07
4.54109e-07
4.26912e-07
4.2698e-07
4.63991e-07
4.41685e-07
4.53917e-07
4.27001e-07
4.26923e-07
4.41662e-07
4.39737e-07
4.19446e-07
4.18868e-07
4.18723e-07
3.96008e-07
3.95851e-07
4.39658e-07
4.19363e-07
4.18866e-07
4.18723e-07
3.95938e-07
3.9586e-07
4.18741e-07
3.95821e-07
3.95865e-07
4.39681e-07
4.19418e-07
4.18703e-07
3.95942e-07
3.95829e-07
4.19379e-07
4.17791e-07
3.97592e-07
3.88871e-07
3.88724e-07
3.68666e-07
3.68565e-07
4.17667e-07
3.97466e-07
3.88805e-07
3.88737e-07
3.68658e-07
3.68587e-07
3.88749e-07
3.68531e-07
3.68608e-07
4.17741e-07
3.97585e-07
3.88705e-07
3.68629e-07
3.68555e-07
3.97548e-07
3.9604e-07
3.75832e-07
3.6229e-07
3.62205e-07
3.44112e-07
3.44069e-07
3.95934e-07
3.75721e-07
3.62297e-07
3.62227e-07
3.44134e-07
3.44092e-07
3.62247e-07
3.44022e-07
3.44087e-07
3.96005e-07
3.75841e-07
3.62196e-07
3.44094e-07
3.44059e-07
3.75894e-07
3.74396e-07
3.54714e-07
3.38341e-07
3.38314e-07
3.21846e-07
3.21856e-07
3.74346e-07
3.54713e-07
3.38362e-07
3.38335e-07
3.21856e-07
3.21868e-07
3.38319e-07
3.21814e-07
3.21826e-07
3.74386e-07
3.54728e-07
3.38302e-07
3.21839e-07
3.21834e-07
3.54881e-07
3.53409e-07
3.34904e-07
3.16606e-07
3.16627e-07
3.01656e-07
3.01681e-07
3.53355e-07
3.34895e-07
3.16612e-07
3.16633e-07
3.01652e-07
3.0168e-07
3.16585e-07
3.01668e-07
3.01629e-07
3.53263e-07
3.35087e-07
3.16602e-07
3.01653e-07
3.01661e-07
3.34875e-07
3.33736e-07
3.16981e-07
2.96922e-07
2.9694e-07
2.83467e-07
2.83461e-07
3.33756e-07
3.16893e-07
2.96913e-07
2.96939e-07
2.83458e-07
2.83472e-07
2.96891e-07
2.83476e-07
2.83419e-07
3.33482e-07
3.1698e-07
2.96927e-07
2.83459e-07
2.83466e-07
3.16896e-07
3.15858e-07
3.01284e-07
2.79228e-07
2.79211e-07
2.67255e-07
2.67212e-07
3.16044e-07
3.01291e-07
2.79219e-07
2.79228e-07
2.67247e-07
2.6725e-07
2.79175e-07
2.67231e-07
2.67185e-07
3.15743e-07
3.01307e-07
2.79226e-07
2.67233e-07
2.67243e-07
3.01225e-07
3.00639e-07
2.88412e-07
2.6351e-07
2.63461e-07
2.53018e-07
2.52955e-07
3.00596e-07
2.88166e-07
2.63502e-07
2.63505e-07
2.53007e-07
2.5301e-07
2.63435e-07
2.52959e-07
2.52935e-07
3.00362e-07
2.88448e-07
2.63496e-07
2.52979e-07
2.52993e-07
2.88433e-07
2.87675e-07
2.78049e-07
2.49766e-07
2.497e-07
2.40749e-07
2.40683e-07
2.87793e-07
2.77925e-07
2.49754e-07
2.49759e-07
2.40734e-07
2.40741e-07
2.49683e-07
2.40673e-07
2.4067e-07
2.87592e-07
2.7816e-07
2.49739e-07
2.407e-07
2.40714e-07
2.77985e-07
2.7807e-07
2.70993e-07
2.37988e-07
2.37925e-07
2.30451e-07
2.30396e-07
2.77828e-07
2.70918e-07
2.3797e-07
2.37982e-07
2.30429e-07
2.30445e-07
2.37914e-07
2.30373e-07
2.30388e-07
2.77806e-07
2.71086e-07
2.37954e-07
2.30402e-07
2.30413e-07
2.70968e-07
2.71451e-07
2.67273e-07
2.28185e-07
2.28137e-07
2.2214e-07
2.22101e-07
2.71353e-07
2.67244e-07
2.28162e-07
2.28184e-07
2.22111e-07
2.2214e-07
2.28131e-07
2.2207e-07
2.22096e-07
2.71389e-07
2.67281e-07
2.28149e-07
2.22093e-07
2.22101e-07
2.67278e-07
2.67661e-07
2.66557e-07
2.20369e-07
2.2034e-07
2.15826e-07
2.15807e-07
2.6758e-07
2.66517e-07
2.20343e-07
2.20375e-07
2.15798e-07
2.15831e-07
2.20337e-07
2.15767e-07
2.158e-07
2.67612e-07
2.66529e-07
2.20339e-07
2.15785e-07
2.15791e-07
2.66548e-07
2.67217e-07
2.68859e-07
2.14564e-07
2.14551e-07
2.11546e-07
2.11544e-07
2.67194e-07
2.68824e-07
2.14537e-07
2.14573e-07
2.11519e-07
2.11556e-07
2.14546e-07
2.1149e-07
2.1153e-07
2.67223e-07
2.68854e-07
2.14534e-07
2.11508e-07
2.1151e-07
2.68833e-07
2.702e-07
2.74343e-07
2.10798e-07
2.10803e-07
2.09291e-07
2.09301e-07
2.70203e-07
2.74279e-07
2.10771e-07
2.10812e-07
2.09259e-07
2.09304e-07
2.10786e-07
2.09234e-07
2.09269e-07
2.70193e-07
2.74247e-07
2.10768e-07
2.09249e-07
2.09248e-07
2.74203e-07
2.76206e-07
2.82168e-07
2.09033e-07
2.09046e-07
2.08899e-07
2.08907e-07
2.76208e-07
2.82049e-07
2.09002e-07
2.09043e-07
2.08862e-07
2.0889e-07
2.09011e-07
2.08833e-07
2.08855e-07
2.76212e-07
2.82055e-07
2.08983e-07
2.08835e-07
2.08827e-07
2.82e-07
2.84529e-07
2.91254e-07
2.0902e-07
2.09025e-07
2.09841e-07
2.09819e-07
2.84425e-07
2.90966e-07
2.08982e-07
2.0901e-07
2.09795e-07
2.09782e-07
2.08971e-07
2.09751e-07
2.09755e-07
2.8436e-07
2.90973e-07
2.08938e-07
2.09732e-07
2.09709e-07
2.90964e-07
2.93792e-07
3.0036e-07
2.10239e-07
2.102e-07
2.11513e-07
2.11406e-07
2.93436e-07
2.99772e-07
2.10182e-07
2.1015e-07
2.11455e-07
2.11346e-07
2.10136e-07
2.11329e-07
2.11358e-07
2.93436e-07
2.99665e-07
2.10086e-07
2.11298e-07
2.11293e-07
2.99855e-07
3.02768e-07
3.08525e-07
2.11996e-07
2.1187e-07
2.13324e-07
2.1313e-07
3.02127e-07
3.07655e-07
2.11932e-07
2.11787e-07
2.13259e-07
2.13016e-07
2.11828e-07
2.13048e-07
2.13118e-07
3.01989e-07
3.07434e-07
2.11753e-07
2.12965e-07
2.13003e-07
3.0788e-07
3.10725e-07
3.1563e-07
2.13787e-07
2.13584e-07
2.15082e-07
2.14834e-07
3.09781e-07
3.14454e-07
2.13727e-07
2.13462e-07
2.15062e-07
2.14631e-07
2.13593e-07
2.14767e-07
2.14877e-07
3.09623e-07
3.14173e-07
2.13458e-07
2.1464e-07
2.14685e-07
3.14875e-07
3.1783e-07
3.22122e-07
2.15564e-07
2.153e-07
2.16942e-07
2.16609e-07
3.16474e-07
3.20681e-07
2.15565e-07
2.15069e-07
2.16866e-07
2.16263e-07
2.1536e-07
2.16529e-07
2.16757e-07
3.16222e-07
3.20237e-07
2.1515e-07
2.16412e-07
2.16471e-07
3.21248e-07
3.24178e-07
3.27708e-07
2.17415e-07
2.17062e-07
2.1856e-07
2.18274e-07
3.22722e-07
3.26481e-07
2.17282e-07
2.16691e-07
2.18336e-07
2.17842e-07
2.17206e-07
2.18097e-07
2.18344e-07
3.2216e-07
3.25669e-07
2.16934e-07
2.18019e-07
2.18149e-07
3.27082e-07
3.29397e-07
3.30908e-07
2.18776e-07
2.18583e-07
2.19265e-07
2.19284e-07
3.28395e-07
3.30947e-07
2.18556e-07
2.18163e-07
2.19117e-07
2.1889e-07
2.18581e-07
2.19019e-07
2.19197e-07
3.27493e-07
3.2976e-07
2.18456e-07
2.18845e-07
2.19129e-07
3.31032e-07
3.32316e-07
3.31343e-07
2.1926e-07
2.19371e-07
2.19367e-07
2.19513e-07
3.32352e-07
3.32645e-07
2.19132e-07
2.1899e-07
2.19215e-07
2.19227e-07
2.193e-07
2.19268e-07
2.19517e-07
3.31375e-07
3.31831e-07
2.19208e-07
2.19033e-07
2.19493e-07
3.32305e-07
3.32548e-07
3.31162e-07
2.1939e-07
2.19496e-07
2.19379e-07
2.19544e-07
3.33574e-07
3.32698e-07
2.19216e-07
2.19219e-07
2.19169e-07
2.19336e-07
2.19505e-07
2.19449e-07
2.19547e-07
3.33096e-07
3.31944e-07
2.1949e-07
2.19156e-07
2.19564e-07
3.32356e-07
3.32359e-07
3.3116e-07
2.19322e-07
2.19536e-07
2.19256e-07
2.19563e-07
3.33843e-07
3.32722e-07
2.19144e-07
2.19343e-07
2.19278e-07
2.19443e-07
2.19521e-07
2.19506e-07
2.19551e-07
3.33143e-07
3.31659e-07
2.19554e-07
2.19169e-07
2.19544e-07
3.32322e-07
3.32406e-07
3.31574e-07
2.19271e-07
2.19603e-07
2.19414e-07
2.19766e-07
3.33934e-07
3.32979e-07
2.19315e-07
2.19441e-07
2.19526e-07
2.19494e-07
2.19562e-07
2.19598e-07
2.19699e-07
3.32853e-07
3.31358e-07
2.1954e-07
2.19246e-07
2.19592e-07
3.32406e-07
3.32841e-07
3.32031e-07
2.19434e-07
2.19741e-07
2.19605e-07
2.19908e-07
3.33994e-07
3.33149e-07
2.19556e-07
2.19506e-07
2.19753e-07
2.19622e-07
2.19723e-07
2.19823e-07
2.19927e-07
3.32594e-07
3.31518e-07
2.19617e-07
2.19414e-07
2.19793e-07
3.32821e-07
3.33231e-07
3.32459e-07
2.19627e-07
2.19962e-07
2.19813e-07
2.20209e-07
3.34109e-07
3.3355e-07
2.19763e-07
2.19643e-07
2.19918e-07
2.19852e-07
2.19986e-07
2.20072e-07
2.20245e-07
3.32639e-07
3.32139e-07
2.19811e-07
2.19706e-07
2.20079e-07
3.33573e-07
3.33579e-07
3.32924e-07
2.19836e-07
2.20241e-07
2.2005e-07
2.20565e-07
3.34605e-07
3.34217e-07
2.19946e-07
2.19875e-07
2.20136e-07
2.20131e-07
2.20251e-07
2.20331e-07
2.2052e-07
3.3321e-07
3.32906e-07
2.20096e-07
2.19984e-07
2.20351e-07
3.34459e-07
3.33959e-07
3.335e-07
2.20085e-07
2.20597e-07
2.20284e-07
2.20879e-07
3.35306e-07
3.34874e-07
2.20147e-07
2.20188e-07
2.2031e-07
2.20449e-07
2.20565e-07
2.2057e-07
2.20774e-07
3.33981e-07
3.336e-07
2.20396e-07
2.20182e-07
2.20635e-07
3.35256e-07
3.34585e-07
3.34336e-07
2.20317e-07
2.20923e-07
2.2056e-07
2.21161e-07
3.35967e-07
3.35632e-07
2.20356e-07
2.20464e-07
2.20585e-07
2.20729e-07
2.20789e-07
2.20793e-07
2.20963e-07
3.34702e-07
3.34426e-07
2.20625e-07
2.2035e-07
2.20807e-07
3.35983e-07
3.35463e-07
3.35251e-07
2.20588e-07
2.21166e-07
2.2082e-07
2.21346e-07
3.3662e-07
3.36413e-07
2.20601e-07
2.20783e-07
2.20854e-07
2.21048e-07
2.20965e-07
2.21002e-07
2.21085e-07
3.35513e-07
3.35075e-07
2.20834e-07
2.20476e-07
2.21021e-07
3.36468e-07
3.36376e-07
3.36175e-07
2.20861e-07
2.21361e-07
2.21065e-07
2.21499e-07
3.37495e-07
3.37164e-07
2.20861e-07
2.21087e-07
2.21082e-07
2.21392e-07
2.21116e-07
2.21203e-07
2.21239e-07
3.36148e-07
3.3573e-07
2.21013e-07
2.20573e-07
2.21186e-07
3.37007e-07
3.37298e-07
3.37003e-07
2.21088e-07
2.2149e-07
2.21306e-07
2.21569e-07
3.38217e-07
3.37839e-07
2.21089e-07
2.21423e-07
2.21188e-07
2.21738e-07
2.21241e-07
2.21361e-07
2.21343e-07
3.368e-07
3.36416e-07
2.21193e-07
2.2073e-07
2.21336e-07
3.37622e-07
3.37978e-07
3.37581e-07
2.21313e-07
2.21578e-07
2.21443e-07
2.21615e-07
3.38947e-07
3.38337e-07
2.21182e-07
2.218e-07
2.21193e-07
2.22074e-07
2.2134e-07
2.2148e-07
2.21396e-07
3.37596e-07
3.37362e-07
2.2135e-07
2.2089e-07
2.21479e-07
3.38109e-07
3.38545e-07
3.37666e-07
2.2146e-07
2.21609e-07
2.21544e-07
2.21617e-07
3.39634e-07
3.38618e-07
2.21195e-07
2.22086e-07
2.21147e-07
2.22292e-07
2.21395e-07
2.21544e-07
2.21394e-07
3.38399e-07
3.37895e-07
2.2147e-07
2.2104e-07
2.21553e-07
3.38192e-07
3.38827e-07
3.37691e-07
2.21535e-07
2.21579e-07
2.21581e-07
2.21579e-07
3.39913e-07
3.38991e-07
2.21119e-07
2.22306e-07
2.21016e-07
2.22448e-07
2.21388e-07
2.21565e-07
2.21339e-07
3.39141e-07
3.38555e-07
2.21553e-07
2.21188e-07
2.2159e-07
3.38351e-07
3.38964e-07
3.37615e-07
2.21571e-07
2.21587e-07
2.21592e-07
2.21617e-07
3.39934e-07
3.38858e-07
2.20989e-07
2.22465e-07
2.20872e-07
2.22568e-07
2.21331e-07
2.21571e-07
2.21213e-07
3.39553e-07
3.38806e-07
2.21576e-07
2.21299e-07
2.21587e-07
3.37969e-07
3.38879e-07
3.37574e-07
2.21565e-07
2.21611e-07
2.21537e-07
2.21632e-07
3.40114e-07
3.39033e-07
2.2079e-07
2.22573e-07
2.20723e-07
2.22644e-07
2.21137e-07
2.21579e-07
2.21e-07
3.40015e-07
3.38969e-07
2.21576e-07
2.2137e-07
2.21539e-07
3.37602e-07
3.38866e-07
3.37772e-07
2.21531e-07
2.21625e-07
2.21521e-07
2.21646e-07
3.39946e-07
3.38906e-07
2.20702e-07
2.2264e-07
2.20672e-07
2.22691e-07
2.20943e-07
2.21591e-07
2.20837e-07
3.40274e-07
3.39354e-07
2.21536e-07
2.21405e-07
2.21527e-07
3.37403e-07
3.38714e-07
3.37744e-07
2.21482e-07
2.21648e-07
2.21468e-07
2.21659e-07
3.39924e-07
3.38938e-07
2.20661e-07
2.22691e-07
2.20685e-07
2.22732e-07
2.20747e-07
2.216e-07
2.20758e-07
3.40332e-07
3.39482e-07
2.21464e-07
2.21437e-07
2.21475e-07
3.37563e-07
3.38658e-07
3.37844e-07
2.21461e-07
2.21657e-07
2.21433e-07
2.21654e-07
3.39938e-07
3.38872e-07
2.20688e-07
2.2272e-07
2.20713e-07
2.22754e-07
2.2076e-07
2.21593e-07
2.20802e-07
3.40373e-07
3.3949e-07
2.21466e-07
2.21474e-07
2.21473e-07
3.37522e-07
3.38846e-07
3.38056e-07
2.21376e-07
2.21644e-07
2.21367e-07
2.21642e-07
3.40061e-07
3.38921e-07
2.20707e-07
2.22764e-07
2.20729e-07
2.22788e-07
2.20802e-07
2.21577e-07
2.20841e-07
3.40696e-07
3.3955e-07
2.21472e-07
2.2154e-07
2.21507e-07
3.37527e-07
3.38954e-07
3.3814e-07
2.21336e-07
2.21636e-07
2.21311e-07
2.2165e-07
3.40124e-07
3.38843e-07
2.20737e-07
2.22782e-07
2.20826e-07
2.22815e-07
2.20837e-07
2.21572e-07
2.20888e-07
3.40837e-07
3.3973e-07
2.21499e-07
2.21599e-07
2.21531e-07
3.37774e-07
3.39398e-07
3.38487e-07
2.21298e-07
2.21651e-07
2.21255e-07
2.21629e-07
3.40137e-07
3.38905e-07
2.20825e-07
2.22809e-07
2.20941e-07
2.22779e-07
2.20884e-07
2.21514e-07
2.20889e-07
3.407e-07
3.39571e-07
2.21531e-07
2.21631e-07
2.2154e-07
3.37752e-07
5.35663e-07
5.35601e-07
5.35655e-07
5.35655e-07
5.3462e-07
5.35509e-07
5.33427e-07
5.35656e-07
5.34623e-07
5.3551e-07
5.35656e-07
5.33574e-07
5.3525e-07
5.36444e-07
5.36036e-07
1.10588e-06
3.87517e-06
9.39473e-07
4.60243e-06
1.26584e-05
1.67352e-05
1.10544e-06
3.87695e-06
9.38868e-07
4.60046e-06
4.95569e-07
4.9557e-07
4.95568e-07
4.57243e-07
4.57237e-07
4.57238e-07
4.57251e-07
5.43387e-07
1.23705e-06
4.95577e-07
4.85593e-07
5.25991e-07
1.21478e-06
4.82313e-07
1.26538e-05
1.6739e-05
5.43365e-07
4.95578e-07
1.23741e-06
4.85591e-07
5.25956e-07
4.82312e-07
1.21504e-06
2.53497e-06
2.54023e-06
4.8438e-07
2.39242e-06
2.38768e-06
1.42776e-06
5.59007e-06
1.32989e-06
6.13966e-06
2.13773e-05
2.3183e-05
1.4276e-06
5.59376e-06
1.3295e-06
6.14273e-06
4.45582e-07
4.45585e-07
4.45596e-07
4.13589e-07
4.13564e-07
4.13572e-07
4.1357e-07
5.87234e-07
1.20089e-06
4.46468e-07
4.44458e-07
5.74197e-07
1.20893e-06
4.35734e-07
2.13889e-05
2.3194e-05
5.87359e-07
4.46472e-07
1.20332e-06
4.44512e-07
5.74267e-07
4.35741e-07
1.2128e-06
2.30989e-06
2.31059e-06
4.53774e-07
2.34497e-06
2.34669e-06
1.65869e-06
6.92458e-06
1.59191e-06
7.33093e-06
2.46724e-05
2.49543e-05
1.65825e-06
6.92338e-06
1.59155e-06
7.32876e-06
4.03777e-07
4.03786e-07
4.03779e-07
3.76753e-07
3.7672e-07
3.76735e-07
3.76722e-07
6.15163e-07
1.24846e-06
4.06609e-07
4.10799e-07
6.08238e-07
1.2701e-06
3.97796e-07
2.46807e-05
2.49614e-05
6.15163e-07
4.06626e-07
1.24899e-06
4.10911e-07
6.08179e-07
3.97818e-07
1.27221e-06
2.46297e-06
2.46395e-06
4.3035e-07
2.5218e-06
2.52222e-06
1.8083e-06
7.85366e-06
1.76773e-06
8.10829e-06
2.47398e-05
2.44325e-05
1.80636e-06
7.85155e-06
1.76651e-06
8.10717e-06
3.68392e-07
3.68409e-07
3.68396e-07
3.45257e-07
3.45219e-07
3.45238e-07
3.45228e-07
6.256e-07
1.31751e-06
3.73544e-07
3.81781e-07
6.244e-07
1.33908e-06
3.66094e-07
2.47415e-05
2.4437e-05
6.25631e-07
3.73573e-07
1.31727e-06
3.81891e-07
6.24436e-07
3.66124e-07
1.33871e-06
2.62602e-06
2.62599e-06
4.08463e-07
2.67031e-06
2.673e-06
1.88764e-06
8.3991e-06
1.86876e-06
8.53394e-06
2.36853e-05
2.32643e-05
1.88758e-06
8.3989e-06
1.86912e-06
8.53497e-06
3.38037e-07
3.38057e-07
3.38048e-07
3.17962e-07
3.17928e-07
3.17948e-07
3.17938e-07
6.21007e-07
1.37568e-06
3.45292e-07
3.55967e-07
6.24778e-07
1.3917e-06
3.38813e-07
2.36865e-05
2.32664e-05
6.20922e-07
3.45317e-07
1.3751e-06
3.56054e-07
6.24767e-07
3.38839e-07
1.39121e-06
2.75725e-06
2.75919e-06
3.86659e-07
2.80202e-06
2.80177e-06
1.92542e-06
8.66351e-06
1.91935e-06
8.71886e-06
2.24963e-05
2.2121e-05
1.9263e-06
8.66533e-06
1.91942e-06
8.7212e-06
3.11657e-07
3.11676e-07
3.11666e-07
2.94023e-07
2.94005e-07
2.94021e-07
2.94009e-07
6.07608e-07
1.41979e-06
3.20519e-07
3.32648e-07
6.14493e-07
1.43145e-06
3.14768e-07
2.24965e-05
2.2123e-05
6.07464e-07
3.20536e-07
1.41838e-06
3.32699e-07
6.14376e-07
3.14783e-07
1.43052e-06
2.89166e-06
2.89374e-06
3.65282e-07
2.94168e-06
2.94466e-06
1.94405e-06
8.75808e-06
1.94024e-06
8.76841e-06
2.14741e-05
2.11799e-05
1.94443e-06
8.76095e-06
1.94041e-06
8.77152e-06
2.88472e-07
2.88486e-07
2.88474e-07
2.72835e-07
2.72832e-07
2.7284e-07
2.72828e-07
5.90489e-07
1.45534e-06
2.98411e-07
3.11492e-07
5.98337e-07
1.46694e-06
2.93241e-07
2.14756e-05
2.11837e-05
5.90335e-07
2.98414e-07
1.45419e-06
3.11495e-07
5.98169e-07
2.93241e-07
1.46456e-06
3.04896e-06
3.05005e-06
3.44693e-07
3.10374e-06
3.10878e-06
1.96245e-06
8.76524e-06
1.9565e-06
8.7604e-06
2.06722e-05
2.0453e-05
1.96254e-06
8.76839e-06
1.95671e-06
8.76271e-06
2.67909e-07
2.67915e-07
2.67905e-07
2.53952e-07
2.53952e-07
2.53956e-07
2.53947e-07
5.73974e-07
1.49525e-06
2.78476e-07
2.9233e-07
5.81184e-07
1.50661e-06
2.73796e-07
2.06771e-05
2.04585e-05
5.73928e-07
2.78468e-07
1.49296e-06
2.92309e-07
5.81071e-07
2.73791e-07
1.50826e-06
3.22748e-06
3.2286e-06
3.25649e-07
3.29076e-06
3.2946e-06
1.99363e-06
8.74549e-06
1.98173e-06
8.73953e-06
2.00718e-05
1.99102e-05
1.99206e-06
8.74874e-06
1.98304e-06
8.74198e-06
2.49546e-07
2.49551e-07
2.49543e-07
2.37044e-07
2.37036e-07
2.37044e-07
2.37035e-07
5.61318e-07
1.54328e-06
2.60417e-07
2.7511e-07
5.66783e-07
1.55866e-06
2.56178e-07
2.00778e-05
1.99165e-05
5.61401e-07
2.60413e-07
1.54125e-06
2.751e-07
5.66782e-07
2.56179e-07
1.56087e-06
3.42317e-06
3.42546e-06
3.08769e-07
3.49281e-06
3.49543e-06
2.0429e-06
8.7306e-06
2.02655e-06
8.72876e-06
1.96341e-05
1.95192e-05
2.04524e-06
8.73302e-06
2.02635e-06
8.73108e-06
2.33081e-07
2.3309e-07
2.33082e-07
2.21861e-07
2.21844e-07
2.21858e-07
2.21846e-07
5.55454e-07
1.60439e-06
2.44065e-07
2.59847e-07
5.5758e-07
1.62498e-06
2.40235e-07
1.96383e-05
1.95233e-05
5.5555e-07
2.4407e-07
1.60396e-06
2.59859e-07
5.57668e-07
2.40245e-07
1.62475e-06
3.63281e-06
3.63213e-06
2.94552e-07
3.70104e-06
3.70406e-06
2.1176e-06
8.72864e-06
2.09289e-06
8.73182e-06
1.93194e-05
1.92406e-05
2.11728e-06
8.73089e-06
2.09115e-06
8.73407e-06
2.18288e-07
2.18304e-07
2.18293e-07
2.08214e-07
2.08191e-07
2.08208e-07
2.08196e-07
5.56811e-07
1.67815e-06
2.29314e-07
2.46568e-07
5.55912e-07
1.70695e-06
2.25872e-07
1.93222e-05
1.92429e-05
5.56914e-07
2.29326e-07
1.67985e-06
2.46592e-07
5.56008e-07
2.25889e-07
1.70496e-06
3.84127e-06
3.84275e-06
2.82919e-07
3.91089e-06
3.9106e-06
2.21762e-06
8.73839e-06
2.18414e-06
8.74652e-06
1.90996e-05
1.90462e-05
2.21774e-06
8.74046e-06
2.18398e-06
8.74856e-06
2.04996e-07
2.05013e-07
2.05003e-07
1.95956e-07
1.95932e-07
1.95948e-07
1.95939e-07
5.66069e-07
1.76905e-06
2.16091e-07
2.35274e-07
5.62541e-07
1.79858e-06
2.13024e-07
1.91018e-05
1.90451e-05
5.66151e-07
2.16105e-07
1.76896e-06
2.35302e-07
5.62626e-07
2.13041e-07
1.79845e-06
4.04524e-06
4.04628e-06
2.74108e-07
4.10917e-06
4.11276e-06
2.34253e-06
8.75746e-06
2.30064e-06
8.76741e-06
1.89473e-05
1.89082e-05
2.34368e-06
8.75991e-06
2.30028e-06
8.76871e-06
1.93065e-07
1.93082e-07
1.93074e-07
1.84969e-07
1.84949e-07
1.84963e-07
1.84956e-07
5.85321e-07
1.8676e-06
2.04338e-07
2.25974e-07
5.7869e-07
1.90414e-06
2.0163e-07
1.89497e-05
1.89092e-05
5.86038e-07
2.0435e-07
1.86953e-06
2.26e-07
5.78627e-07
2.01645e-07
1.90437e-06
4.23752e-06
4.23764e-06
2.68778e-07
4.29569e-06
4.29846e-06
2.48985e-06
8.77967e-06
2.44067e-06
8.78853e-06
1.88421e-05
1.88144e-05
2.49256e-06
8.78182e-06
2.43897e-06
8.79027e-06
1.82385e-07
1.82399e-07
1.82393e-07
1.75162e-07
1.75148e-07
1.75159e-07
1.75154e-07
6.14637e-07
1.97853e-06
1.93999e-07
2.18666e-07
6.04549e-07
2.01367e-06
1.91641e-07
1.88431e-05
1.88154e-05
6.15375e-07
1.94008e-07
1.97686e-06
2.18687e-07
6.04032e-07
1.91652e-07
2.0131e-06
4.41103e-06
4.41418e-06
2.66549e-07
4.46635e-06
4.46666e-06
2.65487e-06
8.79904e-06
2.5999e-06
8.80475e-06
1.87666e-05
1.87445e-05
2.65654e-06
8.80091e-06
2.59912e-06
8.80698e-06
1.72867e-07
1.72878e-07
1.72874e-07
1.66464e-07
1.66455e-07
1.66463e-07
1.6646e-07
6.55455e-07
2.09173e-06
1.85042e-07
2.13373e-07
6.40576e-07
2.12869e-06
1.83029e-07
1.87677e-05
1.87456e-05
6.54945e-07
1.85047e-07
2.09359e-06
2.13393e-07
6.40747e-07
1.83037e-07
2.1315e-06
4.56599e-06
4.56777e-06
2.67265e-07
4.61212e-06
4.61478e-06
2.82742e-06
8.81028e-06
2.77016e-06
8.81183e-06
1.86979e-05
1.86725e-05
2.82775e-06
8.81258e-06
2.7718e-06
8.81441e-06
1.64441e-07
1.64449e-07
1.64447e-07
1.58818e-07
1.58813e-07
1.58819e-07
1.58816e-07
7.0625e-07
2.20821e-06
1.77465e-07
2.10114e-07
6.88416e-07
2.24256e-06
1.75804e-07
1.86984e-05
1.86727e-05
7.06407e-07
1.77469e-07
2.20689e-06
2.10133e-07
6.8868e-07
1.75811e-07
2.2442e-06
4.69198e-06
4.69352e-06
2.7117e-07
4.7272e-06
4.72855e-06
2.98224e-06
8.80912e-06
2.93508e-06
8.80727e-06
1.86163e-05
1.8586e-05
2.98334e-06
8.81218e-06
2.93525e-06
8.80999e-06
1.5705e-07
1.57056e-07
1.57053e-07
1.52162e-07
1.52158e-07
1.52161e-07
1.52157e-07
7.64908e-07
2.31426e-06
1.71288e-07
2.08814e-07
7.45917e-07
2.34464e-06
1.69977e-07
1.86161e-05
1.85858e-05
7.65014e-07
1.71294e-07
2.3134e-06
2.08829e-07
7.45781e-07
1.69984e-07
2.34654e-06
4.78593e-06
4.78774e-06
2.77888e-07
4.8098e-06
4.81145e-06
3.10431e-06
8.79931e-06
3.06954e-06
8.79526e-06
1.85249e-05
1.84941e-05
3.1076e-06
8.80261e-06
3.07046e-06
8.79883e-06
1.50626e-07
1.50629e-07
1.50625e-07
1.46394e-07
1.46389e-07
1.46388e-07
1.46381e-07
8.22517e-07
2.40463e-06
1.66458e-07
2.09153e-07
8.04654e-07
2.43097e-06
1.65452e-07
1.85255e-05
1.84955e-05
8.21714e-07
1.6645e-07
2.40342e-06
2.09149e-07
8.03987e-07
1.65442e-07
2.42967e-06
4.85357e-06
4.85538e-06
2.86443e-07
4.87188e-06
4.87413e-06
3.19171e-06
8.78316e-06
3.16632e-06
8.77874e-06
1.84378e-05
1.84128e-05
3.19019e-06
8.7886e-06
3.16795e-06
8.78415e-06
1.45058e-07
1.45055e-07
1.45049e-07
1.41374e-07
1.41362e-07
1.41353e-07
1.41348e-07
8.68777e-07
2.47424e-06
1.62738e-07
2.10486e-07
8.55647e-07
2.49208e-06
1.61948e-07
1.84386e-05
1.84116e-05
8.68607e-07
1.62704e-07
2.47474e-06
2.10465e-07
8.53827e-07
1.61911e-07
2.49453e-06
4.90025e-06
4.90406e-06
2.95417e-07
4.91071e-06
4.91317e-06
3.24776e-06
8.76769e-06
3.23432e-06
8.76421e-06
1.83696e-05
1.83551e-05
3.25058e-06
8.77376e-06
3.23218e-06
8.77017e-06
1.4019e-07
1.40179e-07
1.40177e-07
1.36962e-07
1.36938e-07
1.36917e-07
1.36922e-07
9.05528e-07
2.52822e-06
1.59789e-07
2.12175e-07
8.94173e-07
2.53972e-06
1.59137e-07
1.83644e-05
1.83473e-05
9.02134e-07
1.59726e-07
2.52677e-06
2.12124e-07
8.9259e-07
1.59074e-07
2.54254e-06
4.93161e-06
4.93456e-06
3.0401e-07
4.93607e-06
4.94086e-06
3.29045e-06
8.75899e-06
3.27839e-06
8.75827e-06
1.83292e-05
1.83228e-05
3.29085e-06
8.7643e-06
3.27825e-06
8.76283e-06
1.35901e-07
1.35875e-07
1.35885e-07
1.33108e-07
1.33078e-07
1.33038e-07
1.3306e-07
9.32829e-07
2.56686e-06
1.57343e-07
2.13879e-07
9.24791e-07
2.57498e-06
1.56783e-07
1.8319e-05
1.83134e-05
9.32631e-07
1.5725e-07
2.57039e-06
2.13767e-07
9.23245e-07
1.56691e-07
2.57971e-06
4.94942e-06
4.95288e-06
3.11411e-07
4.95351e-06
4.95982e-06
3.33139e-06
8.75715e-06
3.3177e-06
8.75779e-06
1.83097e-05
1.83085e-05
3.33466e-06
8.76065e-06
3.32079e-06
8.76012e-06
1.32183e-07
1.32137e-07
1.32165e-07
1.29874e-07
1.29844e-07
1.29786e-07
1.29832e-07
9.60369e-07
2.59715e-06
1.5529e-07
2.15613e-07
9.51576e-07
2.60452e-06
1.54836e-07
1.83016e-05
1.83025e-05
9.58574e-07
1.55186e-07
2.5985e-06
2.15471e-07
9.48544e-07
1.54736e-07
2.60699e-06
4.96124e-06
4.97281e-06
3.18074e-07
4.9662e-06
4.97586e-06
3.37208e-06
8.75717e-06
3.36103e-06
8.75647e-06
1.82992e-05
1.82989e-05
3.37843e-06
8.7588e-06
3.36736e-06
8.75857e-06
1.29116e-07
1.29053e-07
1.29106e-07
1.27309e-07
1.27303e-07
1.27233e-07
1.27296e-07
9.89722e-07
2.6246e-06
1.53688e-07
2.17317e-07
9.80082e-07
2.63009e-06
1.53333e-07
1.82978e-05
1.82987e-05
9.85618e-07
1.53597e-07
2.62738e-06
2.17231e-07
9.79179e-07
1.53258e-07
2.6329e-06
4.97709e-06
4.98474e-06
3.243e-07
4.98287e-06
4.98908e-06
3.38808e-06
8.75384e-06
3.38773e-06
8.75326e-06
1.8291e-05
1.82899e-05
3.3914e-06
8.7559e-06
3.38953e-06
8.75528e-06
1.26745e-07
1.26674e-07
1.26738e-07
1.25395e-07
1.25433e-07
1.25362e-07
1.25426e-07
1.00372e-06
2.63931e-06
1.52429e-07
2.18571e-07
9.99277e-07
2.64439e-06
1.52134e-07
1.82902e-05
1.82913e-05
1.0024e-06
1.52376e-07
2.64473e-06
2.1849e-07
1.00155e-06
1.52091e-07
2.64646e-06
4.98713e-06
4.99154e-06
3.29267e-07
4.98541e-06
4.98947e-06
3.38714e-06
8.75163e-06
3.38907e-06
8.75064e-06
1.82798e-05
1.82782e-05
3.38555e-06
8.75265e-06
3.39192e-06
8.75192e-06
1.25036e-07
1.24968e-07
1.25032e-07
1.24101e-07
1.24174e-07
1.24109e-07
1.24178e-07
1.01429e-06
2.65024e-06
1.51404e-07
2.19175e-07
1.01174e-06
2.65072e-06
1.51173e-07
1.82841e-05
1.82851e-05
1.01368e-06
1.51355e-07
2.64878e-06
2.18991e-07
1.01018e-06
1.51124e-07
2.64822e-06
4.98601e-06
4.99002e-06
3.32066e-07
4.98538e-06
4.98893e-06
3.38654e-06
8.74886e-06
3.38629e-06
8.74835e-06
1.82684e-05
1.82709e-05
3.3816e-06
8.75051e-06
3.3826e-06
8.75039e-06
1.23932e-07
1.23869e-07
1.23931e-07
1.23338e-07
1.23441e-07
1.23384e-07
1.23437e-07
1.01348e-06
2.65464e-06
1.50669e-07
2.19331e-07
1.01577e-06
2.65487e-06
1.50525e-07
1.82786e-05
1.82819e-05
1.01604e-06
1.50603e-07
2.65135e-06
2.19126e-07
1.01727e-06
1.50461e-07
2.65148e-06
4.98689e-06
4.98836e-06
3.32326e-07
4.9858e-06
4.98774e-06
3.38742e-06
8.74747e-06
3.38782e-06
8.74748e-06
1.82699e-05
1.82749e-05
3.3836e-06
8.7505e-06
3.38286e-06
8.75044e-06
1.23316e-07
1.23263e-07
1.23313e-07
1.23007e-07
1.23079e-07
1.23021e-07
1.23069e-07
1.01387e-06
2.65616e-06
1.50269e-07
2.19448e-07
1.01061e-06
2.65376e-06
1.50208e-07
1.82812e-05
1.82864e-05
1.01418e-06
1.50203e-07
2.65313e-06
2.19161e-07
1.01559e-06
1.50146e-07
2.65121e-06
4.98441e-06
4.98884e-06
3.32238e-07
4.98168e-06
4.9868e-06
3.3912e-06
8.74733e-06
3.391e-06
8.7482e-06
1.8275e-05
1.82803e-05
3.38563e-06
8.75024e-06
3.38523e-06
8.75075e-06
1.23051e-07
1.2299e-07
1.2304e-07
1.22918e-07
1.2297e-07
1.22902e-07
1.22961e-07
1.02295e-06
2.65276e-06
1.50158e-07
2.19512e-07
1.02171e-06
2.65112e-06
1.50159e-07
1.82868e-05
1.82912e-05
1.02279e-06
1.50092e-07
2.65143e-06
2.19208e-07
1.02205e-06
1.50093e-07
2.65041e-06
4.98239e-06
4.98684e-06
3.32335e-07
4.98153e-06
4.98598e-06
3.39144e-06
8.74951e-06
3.39169e-06
8.7494e-06
1.82803e-05
1.82836e-05
3.38652e-06
8.752e-06
3.38681e-06
8.75256e-06
1.22969e-07
1.22904e-07
1.22961e-07
1.22901e-07
1.22959e-07
1.22886e-07
1.22952e-07
1.02613e-06
2.65145e-06
1.50204e-07