/*--------------------------------*- C++ -*----------------------------------*\
| =========                 |                                                 |
| \\      /  F ield         | OpenFOAM: The Open Source CFD Toolbox           |
|  \\    /   O peration     | Version:  v2012                                 |
|   \\  /    A nd           | Website:  www.openfoam.com                      |
|    \\/     M anipulation  |                                                 |
\*---------------------------------------------------------------------------*/
FoamFile
{
    version     2.0;
    format      ascii;
    class       volScalarField;
    location    "100";
    object      k;
}
// * * * * * * * * * * * * * * * * * * * * * * * * * * * * * * * * * * * * * //

dimensions      [0 2 -2 0 0 0 0];


internalField   nonuniform List<scalar> 
171728
(
1.42581e-05
1.58652e-05
1.77596e-05
1.58487e-05
1.58386e-05
1.59003e-05
1.78029e-05
6.92625e-05
6.92629e-05
4.95049e-05
1.42668e-05
6.93529e-05
4.36455e-05
6.91823e-05
6.9166e-05
5.73588e-05
5.72658e-05
4.35995e-05
4.35523e-05
1.44975e-05
2.7261e-05
6.94106e-05
5.01987e-05
1.45329e-05
4.38344e-05
2.76348e-05
5.77768e-05
5.7349e-05
6.91794e-05
6.92756e-05
6.92641e-05
7.23163e-05
7.03912e-05
7.04004e-05
6.92646e-05
7.23302e-05
7.23399e-05
7.03871e-05
6.9148e-05
4.94702e-05
5.60302e-05
6.87066e-05
5.60429e-05
6.87105e-05
6.91436e-05
6.93613e-05
6.91918e-05
6.91738e-05
5.4859e-05
3.72372e-05
5.73616e-05
6.80171e-05
6.80202e-05
3.7232e-05
5.48442e-05
5.46438e-05
3.6703e-05
5.72619e-05
6.79901e-05
6.79906e-05
3.67397e-05
5.46442e-05
8.613e-05
7.2173e-05
7.21631e-05
7.21851e-05
7.21749e-05
8.61287e-05
7.05878e-05
6.94115e-05
7.2447e-05
7.24486e-05
7.05736e-05
6.94509e-05
5.01981e-05
6.88741e-05
5.68346e-05
6.88773e-05
5.68242e-05
6.94465e-05
5.49556e-05
3.73934e-05
5.77744e-05
6.81369e-05
6.81388e-05
3.73871e-05
5.49581e-05
5.48981e-05
3.72322e-05
5.73512e-05
6.80045e-05
3.72265e-05
6.80068e-05
5.49001e-05
8.60823e-05
7.21699e-05
7.21526e-05
7.21822e-05
7.21649e-05
8.60882e-05
6.91878e-05
6.92775e-05
1.41881e-05
3.57774e-05
2.39498e-05
2.38564e-05
1.77467e-05
2.39341e-05
2.38436e-05
3.57894e-05
3.58206e-05
2.40184e-05
2.39642e-05
1.77838e-05
2.39485e-05
2.40025e-05
3.58287e-05
1.41927e-05
2.18213e-05
2.67584e-05
4.36415e-05
3.76604e-05
2.67447e-05
3.76665e-05
2.18365e-05
2.17474e-05
2.67299e-05
4.35924e-05
3.7523e-05
3.75075e-05
2.67156e-05
2.17673e-05
2.16815e-05
2.66197e-05
4.35471e-05
3.73748e-05
3.73659e-05
2.66096e-05
2.16961e-05
1.89098e-05
2.72566e-05
3.07046e-05
1.7618e-05
3.06797e-05
1.76097e-05
1.89243e-05
2.19942e-05
2.69045e-05
4.38279e-05
3.79818e-05
3.79705e-05
2.68903e-05
2.20103e-05
1.92438e-05
2.76282e-05
1.77531e-05
3.16509e-05
1.77442e-05
3.16426e-05
1.92603e-05
3.58933e-05
3.58914e-05
3.58914e-05
3.59957e-05
3.39292e-05
3.38874e-05
3.38872e-05
3.39587e-05
3.21562e-05
3.20036e-05
3.20014e-05
3.19446e-05
3.05315e-05
3.02226e-05
3.02181e-05
2.99779e-05
2.90282e-05
2.85453e-05
2.854e-05
2.81101e-05
2.76299e-05
2.69765e-05
2.69715e-05
2.63768e-05
2.63246e-05
2.55195e-05
2.55141e-05
2.47907e-05
2.5104e-05
2.41728e-05
2.41675e-05
2.33592e-05
2.39628e-05
2.2937e-05
2.29329e-05
2.20836e-05
2.28972e-05
2.18113e-05
2.18089e-05
2.09643e-05
2.19034e-05
2.07941e-05
2.07932e-05
1.99928e-05
2.0978e-05
1.98831e-05
1.98832e-05
1.91618e-05
2.01157e-05
1.90762e-05
1.90768e-05
1.84714e-05
1.93155e-05
1.83701e-05
1.83707e-05
1.79162e-05
1.85766e-05
1.77621e-05
1.77626e-05
1.7496e-05
1.78969e-05
1.72528e-05
1.72532e-05
1.72093e-05
1.72757e-05
1.68437e-05
1.68438e-05
1.70526e-05
1.67128e-05
1.6531e-05
1.653e-05
1.70077e-05
1.62079e-05
1.63002e-05
1.62985e-05
1.70485e-05
1.57575e-05
1.61301e-05
1.61276e-05
1.7129e-05
1.53604e-05
1.6004e-05
1.59995e-05
1.72174e-05
1.50208e-05
1.59164e-05
1.59096e-05
1.73045e-05
1.47473e-05
1.58667e-05
1.58596e-05
1.74143e-05
1.45434e-05
1.58414e-05
1.58354e-05
1.75199e-05
1.44041e-05
1.58178e-05
1.58096e-05
1.75726e-05
1.43192e-05
1.5796e-05
1.57839e-05
1.7561e-05
1.42746e-05
1.57902e-05
1.5773e-05
1.75669e-05
1.42541e-05
1.5789e-05
1.57719e-05
1.75652e-05
1.42463e-05
1.57913e-05
1.57743e-05
1.75641e-05
1.42464e-05
1.57981e-05
1.57809e-05
1.7574e-05
1.42483e-05
1.5808e-05
1.57915e-05
1.7594e-05
1.42506e-05
1.58186e-05
1.58017e-05
1.76269e-05
1.42525e-05
1.58277e-05
1.58088e-05
1.76552e-05
1.42549e-05
1.58362e-05
1.58154e-05
1.76813e-05
1.42568e-05
1.58441e-05
1.58199e-05
1.76991e-05
1.42585e-05
1.58506e-05
1.58242e-05
1.77156e-05
1.42593e-05
1.58559e-05
1.58302e-05
1.77374e-05
1.42593e-05
1.58595e-05
1.58379e-05
1.77481e-05
1.4259e-05
1.58621e-05
1.58438e-05
1.77103e-05
1.42579e-05
1.58636e-05
1.58494e-05
1.77217e-05
1.42572e-05
1.58644e-05
1.58537e-05
1.77127e-05
1.42567e-05
1.58649e-05
1.58561e-05
1.77209e-05
1.42564e-05
1.58652e-05
1.58576e-05
1.76984e-05
1.42561e-05
1.58653e-05
1.58585e-05
1.77217e-05
1.4256e-05
1.58647e-05
1.586e-05
1.77268e-05
1.42559e-05
1.58642e-05
1.58623e-05
1.77305e-05
1.42557e-05
1.58637e-05
1.58647e-05
1.77368e-05
3.63062e-05
3.62907e-05
3.62907e-05
3.63062e-05
3.62908e-05
3.62907e-05
3.6423e-05
3.6423e-05
3.6423e-05
3.6423e-05
3.62907e-05
3.62909e-05
3.63061e-05
3.62907e-05
3.62908e-05
3.63063e-05
3.59957e-05
3.42665e-05
3.58914e-05
3.58913e-05
3.43753e-05
3.43753e-05
3.59957e-05
3.42663e-05
3.58914e-05
3.58913e-05
3.43744e-05
3.43753e-05
3.58914e-05
3.43754e-05
3.43734e-05
3.59957e-05
3.42666e-05
3.58913e-05
3.43754e-05
3.43751e-05
3.42656e-05
3.39594e-05
3.22552e-05
3.38869e-05
3.3887e-05
3.24618e-05
3.24634e-05
3.3959e-05
3.22541e-05
3.38858e-05
3.38872e-05
3.24621e-05
3.24646e-05
3.38854e-05
3.24647e-05
3.24643e-05
3.39596e-05
3.22561e-05
3.38871e-05
3.24631e-05
3.24649e-05
3.22565e-05
3.19429e-05
3.0286e-05
3.19998e-05
3.20022e-05
3.06526e-05
3.06574e-05
3.19423e-05
3.02888e-05
3.20008e-05
3.20035e-05
3.06539e-05
3.0658e-05
3.20035e-05
3.06583e-05
3.06573e-05
3.19439e-05
3.02875e-05
3.2004e-05
3.06542e-05
3.06588e-05
3.02891e-05
2.99746e-05
2.84095e-05
3.02167e-05
3.02219e-05
2.8949e-05
2.89543e-05
2.99776e-05
2.84125e-05
3.02173e-05
3.02222e-05
2.89476e-05
2.89538e-05
3.02211e-05
2.89546e-05
2.89527e-05
2.9976e-05
2.84106e-05
3.0223e-05
2.89492e-05
2.8955e-05
2.8413e-05
2.81067e-05
2.66575e-05
2.85401e-05
2.85452e-05
2.73537e-05
2.73582e-05
2.81093e-05
2.66594e-05
2.85386e-05
2.85443e-05
2.73532e-05
2.73565e-05
2.85436e-05
2.73581e-05
2.73569e-05
2.81076e-05
2.6657e-05
2.85459e-05
2.73531e-05
2.7359e-05
2.66605e-05
2.63737e-05
2.50467e-05
2.6972e-05
2.69766e-05
2.58681e-05
2.58727e-05
2.63756e-05
2.50515e-05
2.69722e-05
2.69745e-05
2.58694e-05
2.58699e-05
2.69751e-05
2.58732e-05
2.58702e-05
2.63734e-05
2.50476e-05
2.69774e-05
2.5868e-05
2.58735e-05
2.50512e-05
2.47897e-05
2.35922e-05
2.55141e-05
2.55187e-05
2.44927e-05
2.44968e-05
2.47921e-05
2.35975e-05
2.55156e-05
2.55156e-05
2.44944e-05
2.44936e-05
2.55157e-05
2.44988e-05
2.44929e-05
2.47881e-05
2.35929e-05
2.55195e-05
2.44934e-05
2.44981e-05
2.35949e-05
2.33595e-05
2.22928e-05
2.41667e-05
2.41704e-05
2.32297e-05
2.32317e-05
2.33611e-05
2.22945e-05
2.41684e-05
2.41673e-05
2.32312e-05
2.32294e-05
2.41664e-05
2.32352e-05
2.32277e-05
2.33581e-05
2.22928e-05
2.4172e-05
2.32307e-05
2.32343e-05
2.22928e-05
2.20858e-05
2.11487e-05
2.29321e-05
2.29334e-05
2.20787e-05
2.20781e-05
2.20854e-05
2.1148e-05
2.29335e-05
2.29315e-05
2.20799e-05
2.20774e-05
2.29296e-05
2.2082e-05
2.20748e-05
2.20844e-05
2.11481e-05
2.29364e-05
2.20792e-05
2.2082e-05
2.11475e-05
2.09687e-05
2.01525e-05
2.18087e-05
2.18076e-05
2.10367e-05
2.10342e-05
2.09657e-05
2.01493e-05
2.18099e-05
2.18073e-05
2.10377e-05
2.10348e-05
2.18046e-05
2.10378e-05
2.10319e-05
2.09659e-05
2.0151e-05
2.18118e-05
2.10366e-05
2.10386e-05
2.01491e-05
1.99962e-05
1.92973e-05
2.07937e-05
2.0791e-05
2.01006e-05
2.00973e-05
1.99934e-05
1.92944e-05
2.07947e-05
2.07918e-05
2.01015e-05
2.00987e-05
2.07889e-05
2.01005e-05
2.00959e-05
1.99936e-05
1.92956e-05
2.07954e-05
2.01003e-05
2.01015e-05
1.92944e-05
1.91645e-05
1.85737e-05
1.98838e-05
1.98806e-05
1.92682e-05
1.92649e-05
1.91622e-05
1.8572e-05
1.98847e-05
1.98821e-05
1.9269e-05
1.92665e-05
1.98793e-05
1.92676e-05
1.92641e-05
1.91629e-05
1.85725e-05
1.98847e-05
1.9268e-05
1.92686e-05
1.85719e-05
1.84735e-05
1.79818e-05
1.90773e-05
1.90744e-05
1.85371e-05
1.85344e-05
1.84717e-05
1.79804e-05
1.90781e-05
1.90759e-05
1.85379e-05
1.85358e-05
1.90736e-05
1.85365e-05
1.85339e-05
1.84723e-05
1.79809e-05
1.90778e-05
1.85371e-05
1.85373e-05
1.79804e-05
1.79179e-05
1.75285e-05
1.83712e-05
1.83689e-05
1.79044e-05
1.79023e-05
1.79165e-05
1.75276e-05
1.8372e-05
1.83702e-05
1.79051e-05
1.79033e-05
1.83684e-05
1.79041e-05
1.7902e-05
1.79169e-05
1.75277e-05
1.83715e-05
1.79046e-05
1.79046e-05
1.75273e-05
1.74971e-05
1.72251e-05
1.7763e-05
1.77613e-05
1.73696e-05
1.73684e-05
1.74963e-05
1.72246e-05
1.77637e-05
1.77622e-05
1.73704e-05
1.73689e-05
1.7761e-05
1.73698e-05
1.7368e-05
1.74963e-05
1.72244e-05
1.77634e-05
1.73702e-05
1.737e-05
1.72235e-05
1.72093e-05
1.70569e-05
1.72533e-05
1.72526e-05
1.69351e-05
1.69345e-05
1.72109e-05
1.70603e-05
1.7254e-05
1.72529e-05
1.69357e-05
1.69344e-05
1.72519e-05
1.69356e-05
1.69336e-05
1.72089e-05
1.70554e-05
1.72538e-05
1.69358e-05
1.69353e-05
1.70559e-05
1.70594e-05
1.70087e-05
1.68441e-05
1.68438e-05
1.65987e-05
1.65983e-05
1.7055e-05
1.70074e-05
1.68446e-05
1.68436e-05
1.65992e-05
1.65974e-05
1.68426e-05
1.65994e-05
1.65969e-05
1.70559e-05
1.70032e-05
1.68442e-05
1.65987e-05
1.6598e-05
1.70013e-05
1.70157e-05
1.70414e-05
1.65313e-05
1.6531e-05
1.63505e-05
1.63492e-05
1.70138e-05
1.70334e-05
1.65317e-05
1.65297e-05
1.63505e-05
1.63468e-05
1.65291e-05
1.63501e-05
1.63471e-05
1.70097e-05
1.70302e-05
1.65301e-05
1.63484e-05
1.63477e-05
1.70296e-05
1.70621e-05
1.71217e-05
1.6302e-05
1.63005e-05
1.61713e-05
1.61668e-05
1.70521e-05
1.71006e-05
1.6302e-05
1.62979e-05
1.61707e-05
1.61631e-05
1.62982e-05
1.61667e-05
1.61657e-05
1.70492e-05
1.7099e-05
1.62985e-05
1.61647e-05
1.61654e-05
1.71035e-05
1.71472e-05
1.72125e-05
1.61364e-05
1.61315e-05
1.60399e-05
1.60314e-05
1.71265e-05
1.71765e-05
1.61356e-05
1.61272e-05
1.60388e-05
1.60252e-05
1.61299e-05
1.6031e-05
1.60321e-05
1.71232e-05
1.71778e-05
1.61296e-05
1.60272e-05
1.60307e-05
1.71855e-05
1.72404e-05
1.73048e-05
1.60136e-05
1.60047e-05
1.59429e-05
1.59318e-05
1.72073e-05
1.7264e-05
1.60126e-05
1.5998e-05
1.5944e-05
1.59225e-05
1.60057e-05
1.59342e-05
1.5935e-05
1.71969e-05
1.72495e-05
1.6004e-05
1.59273e-05
1.59312e-05
1.72729e-05
1.73322e-05
1.74081e-05
1.59257e-05
1.59145e-05
1.58866e-05
1.58725e-05
1.72944e-05
1.73583e-05
1.59268e-05
1.59043e-05
1.58851e-05
1.58577e-05
1.59181e-05
1.58753e-05
1.58796e-05
1.72766e-05
1.73444e-05
1.59135e-05
1.58678e-05
1.58715e-05
1.7384e-05
1.74413e-05
1.75187e-05
1.58784e-05
1.58639e-05
1.58597e-05
1.58467e-05
1.73999e-05
1.74671e-05
1.5875e-05
1.58486e-05
1.58527e-05
1.5829e-05
1.58716e-05
1.58467e-05
1.58514e-05
1.73761e-05
1.74354e-05
1.58633e-05
1.584e-05
1.58465e-05
1.74966e-05
1.75435e-05
1.75183e-05
1.58535e-05
1.58429e-05
1.58286e-05
1.58275e-05
1.75112e-05
1.75608e-05
1.58461e-05
1.58257e-05
1.58231e-05
1.58117e-05
1.58455e-05
1.58237e-05
1.58268e-05
1.74773e-05
1.75033e-05
1.58419e-05
1.58164e-05
1.58235e-05
1.75558e-05
1.754e-05
1.75106e-05
1.582e-05
1.58225e-05
1.57979e-05
1.58051e-05
1.75831e-05
1.75479e-05
1.58156e-05
1.58072e-05
1.57945e-05
1.57889e-05
1.58211e-05
1.57999e-05
1.58058e-05
1.75289e-05
1.75158e-05
1.58178e-05
1.57891e-05
1.58034e-05
1.75469e-05
1.75236e-05
1.75115e-05
1.57935e-05
1.58002e-05
1.57838e-05
1.57901e-05
1.7582e-05
1.75701e-05
1.57889e-05
1.57842e-05
1.57777e-05
1.57758e-05
1.58018e-05
1.57906e-05
1.57915e-05
1.75416e-05
1.75125e-05
1.58003e-05
1.57743e-05
1.57928e-05
1.75444e-05
1.75244e-05
1.75135e-05
1.57813e-05
1.57885e-05
1.57764e-05
1.57875e-05
1.7589e-05
1.75688e-05
1.57761e-05
1.57755e-05
1.5776e-05
1.57769e-05
1.57897e-05
1.57891e-05
1.57866e-05
1.75289e-05
1.7519e-05
1.57914e-05
1.57718e-05
1.57873e-05
1.75399e-05
1.75284e-05
1.7529e-05
1.57763e-05
1.5788e-05
1.57781e-05
1.57915e-05
1.75838e-05
1.75732e-05
1.57777e-05
1.57773e-05
1.57848e-05
1.57785e-05
1.57866e-05
1.57902e-05
1.57886e-05
1.75318e-05
1.75179e-05
1.57867e-05
1.57734e-05
1.57868e-05
1.7551e-05
1.75454e-05
1.75442e-05
1.57801e-05
1.57936e-05
1.57855e-05
1.5798e-05
1.75887e-05
1.75808e-05
1.57878e-05
1.57793e-05
1.5794e-05
1.57824e-05
1.57904e-05
1.57961e-05
1.57966e-05
1.75319e-05
1.7522e-05
1.57876e-05
1.57788e-05
1.57923e-05
1.7555e-05
1.75638e-05
1.75561e-05
1.57879e-05
1.58003e-05
1.57931e-05
1.58075e-05
1.75972e-05
1.75908e-05
1.57963e-05
1.57846e-05
1.58011e-05
1.57904e-05
1.57995e-05
1.58055e-05
1.58076e-05
1.75355e-05
1.75372e-05
1.57951e-05
1.57887e-05
1.58028e-05
1.75659e-05
1.75693e-05
1.7566e-05
1.57957e-05
1.58107e-05
1.58014e-05
1.58203e-05
1.76073e-05
1.75989e-05
1.58032e-05
1.57933e-05
1.58076e-05
1.58003e-05
1.58107e-05
1.58161e-05
1.58187e-05
1.7556e-05
1.75451e-05
1.58061e-05
1.57995e-05
1.58141e-05
1.76037e-05
1.75838e-05
1.75758e-05
1.58039e-05
1.58238e-05
1.58103e-05
1.5833e-05
1.76262e-05
1.76347e-05
1.58097e-05
1.58035e-05
1.58142e-05
1.58105e-05
1.58215e-05
1.58257e-05
1.58285e-05
1.75714e-05
1.75766e-05
1.5817e-05
1.58072e-05
1.58239e-05
1.76277e-05
1.75962e-05
1.76042e-05
1.58131e-05
1.5836e-05
1.58203e-05
1.58433e-05
1.76523e-05
1.76568e-05
1.58166e-05
1.58134e-05
1.58237e-05
1.58208e-05
1.58307e-05
1.58343e-05
1.58357e-05
1.75918e-05
1.76001e-05
1.58263e-05
1.58139e-05
1.58318e-05
1.76645e-05
1.7626e-05
1.76324e-05
1.58231e-05
1.58454e-05
1.58304e-05
1.5851e-05
1.76726e-05
1.76813e-05
1.58265e-05
1.5824e-05
1.58342e-05
1.58318e-05
1.58371e-05
1.58424e-05
1.58409e-05
1.76215e-05
1.76264e-05
1.58336e-05
1.58189e-05
1.58387e-05
1.76797e-05
1.76564e-05
1.76685e-05
1.5833e-05
1.58526e-05
1.584e-05
1.58563e-05
1.77017e-05
1.77026e-05
1.58368e-05
1.58348e-05
1.58434e-05
1.58437e-05
1.58423e-05
1.58491e-05
1.58462e-05
1.76447e-05
1.76406e-05
1.58406e-05
1.58231e-05
1.58456e-05
1.76975e-05
1.76911e-05
1.76933e-05
1.58424e-05
1.58574e-05
1.5848e-05
1.58595e-05
1.77237e-05
1.77278e-05
1.58454e-05
1.58472e-05
1.58481e-05
1.58573e-05
1.58475e-05
1.58547e-05
1.58505e-05
1.7662e-05
1.76701e-05
1.58473e-05
1.58285e-05
1.58517e-05
1.77221e-05
1.77096e-05
1.77072e-05
1.58498e-05
1.58602e-05
1.58541e-05
1.58605e-05
1.77431e-05
1.77257e-05
1.58482e-05
1.58607e-05
1.58474e-05
1.587e-05
1.58514e-05
1.58588e-05
1.58532e-05
1.76868e-05
1.76996e-05
1.58532e-05
1.5836e-05
1.58569e-05
1.77283e-05
1.77271e-05
1.76991e-05
1.58553e-05
1.58604e-05
1.58577e-05
1.58602e-05
1.77494e-05
1.77496e-05
1.5847e-05
1.58728e-05
1.58444e-05
1.58795e-05
1.58537e-05
1.58616e-05
1.58534e-05
1.77214e-05
1.77257e-05
1.5858e-05
1.58426e-05
1.58603e-05
1.76914e-05
1.77151e-05
1.7721e-05
1.58582e-05
1.58603e-05
1.58595e-05
1.58605e-05
1.77711e-05
1.7763e-05
1.58431e-05
1.58814e-05
1.58392e-05
1.58862e-05
1.58527e-05
1.58634e-05
1.58508e-05
1.77411e-05
1.7745e-05
1.58609e-05
1.58481e-05
1.58619e-05
1.77271e-05
1.77375e-05
1.76892e-05
1.58599e-05
1.58607e-05
1.58598e-05
1.58611e-05
1.77771e-05
1.77476e-05
1.58379e-05
1.58875e-05
1.58337e-05
1.58908e-05
1.58496e-05
1.58644e-05
1.58451e-05
1.77665e-05
1.77605e-05
1.58619e-05
1.58529e-05
1.58614e-05
1.76955e-05
1.7722e-05
1.76942e-05
1.58597e-05
1.58614e-05
1.58586e-05
1.58617e-05
1.77641e-05
1.77495e-05
1.58326e-05
1.58917e-05
1.58294e-05
1.58936e-05
1.5843e-05
1.58647e-05
1.58371e-05
1.77766e-05
1.77576e-05
1.5861e-05
1.58556e-05
1.58603e-05
1.77077e-05
1.77296e-05
1.77162e-05
1.58584e-05
1.5862e-05
1.58573e-05
1.58624e-05
1.77719e-05
1.77417e-05
1.5829e-05
1.58942e-05
1.58277e-05
1.58951e-05
1.58354e-05
1.58651e-05
1.58313e-05
1.77865e-05
1.7776e-05
1.58603e-05
1.58573e-05
1.58596e-05
1.76814e-05
1.77339e-05
1.77174e-05
1.58569e-05
1.58625e-05
1.58553e-05
1.58631e-05
1.77604e-05
1.77603e-05
1.58276e-05
1.58954e-05
1.58279e-05
1.58963e-05
1.58307e-05
1.58654e-05
1.58301e-05
1.77898e-05
1.77805e-05
1.58593e-05
1.58583e-05
1.58589e-05
1.77051e-05
1.7739e-05
1.77239e-05
1.58549e-05
1.5863e-05
1.58533e-05
1.58626e-05
1.77716e-05
1.77568e-05
1.58283e-05
1.58966e-05
1.58293e-05
1.58974e-05
1.58302e-05
1.58649e-05
1.58312e-05
1.78004e-05
1.77796e-05
1.5859e-05
1.58597e-05
1.58591e-05
1.77125e-05
1.77393e-05
1.77263e-05
1.58529e-05
1.58627e-05
1.58514e-05
1.58627e-05
1.77736e-05
1.77678e-05
1.58296e-05
1.58977e-05
1.58302e-05
1.58984e-05
1.58316e-05
1.58644e-05
1.58325e-05
1.78047e-05
1.77922e-05
1.58591e-05
1.58618e-05
1.58595e-05
1.77076e-05
1.77474e-05
1.77284e-05
1.58511e-05
1.58627e-05
1.58501e-05
1.5863e-05
1.77846e-05
1.7752e-05
1.58308e-05
1.58986e-05
1.58326e-05
1.58993e-05
1.58329e-05
1.58639e-05
1.58342e-05
1.78045e-05
1.77917e-05
1.58596e-05
1.58643e-05
1.58604e-05
1.77173e-05
1.77549e-05
1.77465e-05
1.58498e-05
1.58631e-05
1.58489e-05
1.58627e-05
1.77733e-05
1.77413e-05
1.58337e-05
1.58996e-05
1.5837e-05
1.59002e-05
1.58346e-05
1.58624e-05
1.58353e-05
1.78058e-05
1.77765e-05
1.58607e-05
1.58652e-05
1.58614e-05
1.77195e-05
3.73774e-05
3.73766e-05
3.7377e-05
3.7377e-05
3.73702e-05
3.73777e-05
3.73046e-05
3.73769e-05
3.73702e-05
3.73777e-05
3.73769e-05
3.73045e-05
3.73742e-05
3.72961e-05
3.7297e-05
3.58589e-05
4.07522e-05
3.65916e-05
4.51244e-05
5.57665e-05
6.52387e-05
3.58651e-05
4.07083e-05
3.65947e-05
4.51071e-05
3.58933e-05
3.58933e-05
3.58933e-05
3.44001e-05
3.44001e-05
3.44001e-05
3.44e-05
3.5272e-05
3.5597e-05
3.58931e-05
3.53765e-05
3.60485e-05
3.4174e-05
3.53821e-05
5.57295e-05
6.52397e-05
3.5272e-05
3.58932e-05
3.55977e-05
3.53766e-05
3.60485e-05
3.53821e-05
3.41739e-05
3.65703e-05
3.65631e-05
3.52778e-05
3.39691e-05
3.39927e-05
3.39309e-05
5.13364e-05
3.46609e-05
5.46435e-05
7.67691e-05
8.10292e-05
3.39381e-05
5.13543e-05
3.46666e-05
5.46608e-05
3.39293e-05
3.39293e-05
3.39291e-05
3.25842e-05
3.25845e-05
3.25845e-05
3.25846e-05
3.30445e-05
3.24291e-05
3.39292e-05
3.34064e-05
3.38916e-05
3.15207e-05
3.34673e-05
7.67905e-05
8.10503e-05
3.30432e-05
3.39291e-05
3.23981e-05
3.34059e-05
3.38904e-05
3.34672e-05
3.1465e-05
3.15978e-05
3.16123e-05
3.32586e-05
3.07927e-05
3.08056e-05
3.22273e-05
5.92038e-05
3.29059e-05
6.14997e-05
8.44636e-05
8.51059e-05
3.22218e-05
5.91993e-05
3.29027e-05
6.14869e-05
3.21567e-05
3.21566e-05
3.21568e-05
3.09254e-05
3.09264e-05
3.0926e-05
3.09265e-05
3.07735e-05
3.0471e-05
3.21362e-05
3.15488e-05
3.16257e-05
2.98483e-05
3.17083e-05
8.44775e-05
8.51172e-05
3.07718e-05
3.21358e-05
3.03876e-05
3.1546e-05
3.16239e-05
3.17077e-05
2.97611e-05
3.01396e-05
3.01492e-05
3.12646e-05
2.99349e-05
2.99445e-05
3.0737e-05
6.43907e-05
3.13333e-05
6.57758e-05
8.46105e-05
8.39159e-05
3.0729e-05
6.43755e-05
3.13258e-05
6.57652e-05
3.05327e-05
3.05323e-05
3.05327e-05
2.93935e-05
2.93954e-05
2.93946e-05
2.93952e-05
2.85821e-05
2.91097e-05
3.04665e-05
2.97933e-05
2.93986e-05
2.86467e-05
3.00654e-05
8.46239e-05
8.39219e-05
2.8577e-05
3.04655e-05
2.90319e-05
2.97883e-05
2.93947e-05
3.00641e-05
2.85756e-05
2.99099e-05
2.9923e-05
2.9337e-05
3.00241e-05
3.00304e-05
2.95028e-05
6.7339e-05
2.99869e-05
6.80584e-05
8.21964e-05
8.12194e-05
2.95052e-05
6.73327e-05
2.99783e-05
6.80588e-05
2.90302e-05
2.90293e-05
2.903e-05
2.79702e-05
2.79721e-05
2.7971e-05
2.7972e-05
2.65486e-05
2.8096e-05
2.88984e-05
2.81426e-05
2.73045e-05
2.7744e-05
2.8521e-05
8.21946e-05
8.12197e-05
2.65398e-05
2.88966e-05
2.80402e-05
2.81374e-05
2.72963e-05
2.85189e-05
2.77033e-05
3.046e-05
3.04733e-05
2.75202e-05
3.07823e-05
3.07936e-05
2.85888e-05
6.87449e-05
2.89258e-05
6.9038e-05
7.94223e-05
7.85363e-05
2.85908e-05
6.87496e-05
2.89299e-05
6.90459e-05
2.76317e-05
2.76305e-05
2.76316e-05
2.66425e-05
2.66441e-05
2.66426e-05
2.66439e-05
2.47242e-05
2.73779e-05
2.74232e-05
2.66016e-05
2.54038e-05
2.7155e-05
2.70684e-05
7.94175e-05
7.85357e-05
2.47148e-05
2.74207e-05
2.73432e-05
2.65966e-05
2.53936e-05
2.70657e-05
2.71213e-05
3.16119e-05
3.16323e-05
2.58371e-05
3.21074e-05
3.21306e-05
2.80402e-05
6.92418e-05
2.82235e-05
6.93007e-05
7.69974e-05
7.62932e-05
2.80448e-05
6.92521e-05
2.8226e-05
6.93129e-05
2.63262e-05
2.63246e-05
2.63259e-05
2.54012e-05
2.54029e-05
2.54011e-05
2.54021e-05
2.31448e-05
2.69798e-05
2.6038e-05
2.51723e-05
2.37387e-05
2.68922e-05
2.57054e-05
7.69961e-05
7.62965e-05
2.31378e-05
2.60351e-05
2.69478e-05
2.51668e-05
2.37298e-05
2.57024e-05
2.68688e-05
3.32507e-05
3.32804e-05
2.43039e-05
3.38849e-05
3.39125e-05
2.78993e-05
6.92818e-05
2.79108e-05
6.92522e-05
7.50686e-05
7.45364e-05
2.79039e-05
6.92941e-05
2.79145e-05
6.9268e-05
2.51058e-05
2.51039e-05
2.51049e-05
2.42404e-05
2.42422e-05
2.42403e-05
2.4241e-05
2.18281e-05
2.69163e-05
2.47415e-05
2.38531e-05
2.23297e-05
2.69649e-05
2.44309e-05
7.50752e-05
7.45455e-05
2.18261e-05
2.47388e-05
2.68958e-05
2.3848e-05
2.23253e-05
2.44282e-05
2.69399e-05
3.52618e-05
3.52888e-05
2.29238e-05
3.59876e-05
3.60142e-05
2.81573e-05
6.91798e-05
2.80226e-05
6.91502e-05
7.36069e-05
7.32142e-05
2.81641e-05
6.91871e-05
2.80252e-05
6.91586e-05
2.39646e-05
2.39627e-05
2.39634e-05
2.31561e-05
2.31573e-05
2.31558e-05
2.31561e-05
2.07857e-05
2.71772e-05
2.35326e-05
2.26449e-05
2.1186e-05
2.73443e-05
2.32431e-05
7.36176e-05
7.32259e-05
2.07874e-05
2.35307e-05
2.71798e-05
2.26412e-05
2.11865e-05
2.32414e-05
2.73253e-05
3.75225e-05
3.75386e-05
2.1701e-05
3.83056e-05
3.83187e-05
2.88277e-05
6.90988e-05
2.85565e-05
6.909e-05
7.253e-05
7.22462e-05
2.88313e-05
6.91068e-05
2.85542e-05
6.90975e-05
2.28983e-05
2.28969e-05
2.28972e-05
2.21445e-05
2.21446e-05
2.21439e-05
2.21438e-05
2.0016e-05
2.77587e-05
2.24075e-05
2.15464e-05
2.03066e-05
2.803e-05
2.21387e-05
7.2539e-05
7.22514e-05
2.00191e-05
2.24067e-05
2.7769e-05
2.15444e-05
2.03091e-05
2.21381e-05
2.80165e-05
3.99208e-05
3.99246e-05
2.06302e-05
4.07266e-05
4.07301e-05
2.99108e-05
6.90893e-05
2.95022e-05
6.91052e-05
7.17606e-05
7.15561e-05
2.99083e-05
6.9097e-05
2.95003e-05
6.9113e-05
2.19034e-05
2.19028e-05
2.19028e-05
2.12022e-05
2.12012e-05
2.12012e-05
2.12008e-05
1.95116e-05
2.86385e-05
2.13663e-05
2.0556e-05
1.96943e-05
2.89783e-05
2.11184e-05
7.17649e-05
7.15579e-05
1.95132e-05
2.13664e-05
2.8646e-05
2.05553e-05
1.9696e-05
2.11187e-05
2.89959e-05
4.235e-05
4.23521e-05
1.97043e-05
4.31491e-05
4.31512e-05
3.13966e-05
6.91441e-05
3.08531e-05
6.91805e-05
7.12163e-05
7.10726e-05
3.13944e-05
6.91511e-05
3.08512e-05
6.91872e-05
2.09771e-05
2.09772e-05
2.09769e-05
2.03248e-05
2.03232e-05
2.03236e-05
2.0323e-05
1.9271e-05
2.97767e-05
2.04087e-05
1.9671e-05
1.93407e-05
3.01869e-05
2.01812e-05
7.12139e-05
7.10776e-05
1.92699e-05
2.04095e-05
2.9765e-05
1.96711e-05
1.93467e-05
2.01819e-05
3.01982e-05
4.47285e-05
4.47292e-05
1.8917e-05
4.54938e-05
4.54999e-05
3.32566e-05
6.92441e-05
3.25986e-05
6.92908e-05
7.08325e-05
7.0741e-05
3.32584e-05
6.9246e-05
3.25956e-05
6.92989e-05
2.01144e-05
2.0115e-05
2.01145e-05
1.95088e-05
1.9507e-05
1.95076e-05
1.9507e-05
1.92915e-05
3.11165e-05
1.95319e-05
1.88896e-05
1.92589e-05
3.15919e-05
1.93241e-05
7.08279e-05
7.07394e-05
1.92866e-05
1.95329e-05
3.11102e-05
1.88902e-05
1.92606e-05
1.9325e-05
3.15983e-05
4.69796e-05
4.69877e-05
1.82596e-05
4.76985e-05
4.77089e-05
3.54546e-05
6.93596e-05
3.46873e-05
6.94073e-05
7.05624e-05
7.05063e-05
3.54558e-05
6.93624e-05
3.46855e-05
6.94132e-05
1.93143e-05
1.93149e-05
1.93145e-05
1.87547e-05
1.8753e-05
1.87536e-05
1.8753e-05
1.9569e-05
3.26255e-05
1.8733e-05
1.82082e-05
1.94428e-05
3.31607e-05
1.85441e-05
7.05607e-05
7.05051e-05
1.95633e-05
1.87339e-05
3.2632e-05
1.82088e-05
1.94483e-05
1.85449e-05
3.31547e-05
4.90774e-05
4.90905e-05
1.77361e-05
4.97491e-05
4.97542e-05
3.79051e-05
6.94604e-05
3.70641e-05
6.94956e-05
7.03743e-05
7.03325e-05
3.79059e-05
6.9466e-05
3.70689e-05
6.95006e-05
1.85756e-05
1.85762e-05
1.85759e-05
1.80603e-05
1.80588e-05
1.80592e-05
1.80589e-05
2.0122e-05
3.42613e-05
1.80101e-05
1.76245e-05
1.99008e-05
3.48221e-05
1.78402e-05
7.03731e-05
7.0331e-05
2.01222e-05
1.80109e-05
3.42655e-05
1.7625e-05
1.99049e-05
1.78409e-05
3.48306e-05
5.09756e-05
5.09915e-05
1.73574e-05
5.15484e-05
5.15593e-05
4.0426e-05
6.9525e-05
3.95944e-05
6.95403e-05
7.0208e-05
7.01602e-05
4.04511e-05
6.95322e-05
3.95925e-05
6.95492e-05
1.78964e-05
1.78968e-05
1.78966e-05
1.74244e-05
1.74233e-05
1.74234e-05
1.74232e-05
2.09714e-05
3.5942e-05
1.73644e-05
1.71402e-05
2.06557e-05
3.64782e-05
1.72144e-05
7.02062e-05
7.01577e-05
2.09746e-05
1.7365e-05
3.59447e-05
1.71405e-05
2.06595e-05
1.72148e-05
3.64865e-05
5.25548e-05
5.25641e-05
1.71242e-05
5.29988e-05
5.30075e-05
4.26829e-05
6.95337e-05
4.19603e-05
6.9525e-05
7.00104e-05
6.9951e-05
4.2708e-05
6.95424e-05
4.19747e-05
6.95352e-05
1.72758e-05
1.72758e-05
1.72758e-05
1.6847e-05
1.68461e-05
1.6846e-05
1.68458e-05
2.20366e-05
3.75261e-05
1.67996e-05
1.67557e-05
2.16718e-05
3.80003e-05
1.66695e-05
7.00062e-05
6.99471e-05
2.20256e-05
1.68001e-05
3.75223e-05
1.67555e-05
2.16711e-05
1.66699e-05
3.79909e-05
5.37691e-05
5.37771e-05
1.7016e-05
5.41187e-05
5.41224e-05
4.4443e-05
6.94889e-05
4.38875e-05
6.94687e-05
6.97861e-05
6.97238e-05
4.44727e-05
6.95006e-05
4.39131e-05
6.94826e-05
1.67133e-05
1.67131e-05
1.67131e-05
1.63278e-05
1.63269e-05
1.63263e-05
1.63262e-05
2.30899e-05
3.88808e-05
1.63134e-05
1.6465e-05
2.27573e-05
3.92571e-05
1.62024e-05
6.97833e-05
6.97229e-05
2.30676e-05
1.63132e-05
3.88661e-05
1.64638e-05
2.27431e-05
1.62017e-05
3.92451e-05
5.46998e-05
5.47107e-05
1.70066e-05
5.49645e-05
5.49816e-05
4.57148e-05
6.94105e-05
4.53114e-05
6.93828e-05
6.95666e-05
6.95138e-05
4.57273e-05
6.94313e-05
4.53252e-05
6.94074e-05
1.62086e-05
1.62079e-05
1.62078e-05
1.58642e-05
1.58628e-05
1.58617e-05
1.58618e-05
2.39686e-05
3.99479e-05
1.59007e-05
1.62515e-05
2.36975e-05
4.02439e-05
1.58064e-05
6.95648e-05
6.95096e-05
2.39221e-05
1.58989e-05
3.99479e-05
1.62496e-05
2.36625e-05
1.58043e-05
4.02597e-05
5.53923e-05
5.54152e-05
1.7063e-05
5.56138e-05
5.56285e-05
4.66469e-05
6.93248e-05
4.63404e-05
6.93056e-05
6.93936e-05
6.93533e-05
4.66058e-05
6.93524e-05
4.63062e-05
6.93314e-05
1.57579e-05
1.57566e-05
1.57568e-05
1.54537e-05
1.54513e-05
1.54495e-05
1.54503e-05
2.46155e-05
4.07622e-05
1.55506e-05
1.60936e-05
2.44107e-05
4.10108e-05
1.54705e-05
6.93772e-05
6.93319e-05
2.45709e-05
1.55477e-05
4.07968e-05
1.60909e-05
2.4353e-05
1.54673e-05
4.10398e-05
5.59026e-05
5.59345e-05
1.71459e-05
5.60478e-05
5.60835e-05
4.73902e-05
6.92722e-05
4.71151e-05
6.92648e-05
6.92812e-05
6.92626e-05
4.73929e-05
6.92936e-05
4.70707e-05
6.92868e-05
1.536e-05
1.53579e-05
1.53589e-05
1.5099e-05
1.50956e-05
1.50926e-05
1.50943e-05
2.51394e-05
4.14253e-05
1.52544e-05
1.59774e-05
2.49509e-05
4.1625e-05
1.51871e-05
6.92519e-05
6.92341e-05
2.51097e-05
1.52504e-05
4.1485e-05
1.59721e-05
2.49049e-05
1.5183e-05
4.17145e-05
5.6285e-05
5.6329e-05
1.72295e-05
5.63914e-05
5.64689e-05
4.81619e-05
6.92556e-05
4.78243e-05
6.92581e-05
6.92244e-05
6.92205e-05
4.82556e-05
6.92735e-05
4.78848e-05
6.92709e-05
1.50195e-05
1.50162e-05
1.50182e-05
1.48082e-05
1.48038e-05
1.47997e-05
1.48024e-05
2.56915e-05
4.19955e-05
1.50098e-05
1.58993e-05
2.54924e-05
4.21756e-05
1.49561e-05
6.91992e-05
6.91991e-05
2.56438e-05
1.50058e-05
4.20443e-05
1.5892e-05
2.54429e-05
1.49519e-05
4.21918e-05
5.65805e-05
5.66951e-05
1.73255e-05
5.66891e-05
5.67982e-05
4.89019e-05
6.92597e-05
4.86167e-05
6.92579e-05
6.91965e-05
6.91957e-05
4.90484e-05
6.92646e-05
4.88216e-05
6.92628e-05
1.4745e-05
1.47406e-05
1.47436e-05
1.4587e-05
1.45825e-05
1.45776e-05
1.4581e-05
2.63442e-05
4.25719e-05
1.48209e-05
1.58586e-05
2.60478e-05
4.26971e-05
1.4781e-05
6.91862e-05
6.91905e-05
2.62617e-05
1.48169e-05
4.25668e-05
1.58512e-05
2.59915e-05
1.47773e-05
4.27416e-05
5.69246e-05
5.6993e-05
1.74317e-05
5.70484e-05
5.71164e-05
4.90249e-05
6.92434e-05
4.91525e-05
6.92396e-05
6.91759e-05
6.91748e-05
4.91727e-05
6.92514e-05
4.92231e-05
6.92466e-05
1.45409e-05
1.4536e-05
1.45394e-05
1.44322e-05
1.44289e-05
1.4424e-05
1.44272e-05
2.66232e-05
4.2941e-05
1.46839e-05
1.58354e-05
2.65598e-05
4.30118e-05
1.46554e-05
6.91699e-05
6.91718e-05
2.66568e-05
1.46805e-05
4.29197e-05
1.58286e-05
2.65385e-05
1.4652e-05
4.29958e-05
5.71691e-05
5.71848e-05
1.75241e-05
5.71359e-05
5.71938e-05
4.91066e-05
6.92301e-05
4.90841e-05
6.92234e-05
6.91485e-05
6.91444e-05
4.89857e-05
6.92313e-05
4.91844e-05
6.9228e-05
1.44027e-05
1.43977e-05
1.44008e-05
1.43348e-05
1.43338e-05
1.43288e-05
1.4332e-05
2.67471e-05
4.29941e-05
1.45888e-05
1.58113e-05
2.67724e-05
4.30548e-05
1.45697e-05
6.91536e-05
6.91557e-05
2.67214e-05
1.45849e-05
4.2992e-05
1.58023e-05
2.6716e-05
1.45655e-05
4.29305e-05
5.72003e-05
5.72118e-05
1.75673e-05
5.72182e-05
5.72366e-05
4.90493e-05
6.9214e-05
4.89841e-05
6.92115e-05
6.91173e-05
6.9121e-05
4.89896e-05
6.92192e-05
4.8967e-05
6.92181e-05
1.43191e-05
1.43139e-05
1.43173e-05
1.42812e-05
1.42824e-05
1.42774e-05
1.42805e-05
2.68829e-05
4.31082e-05
1.453e-05
1.57931e-05
2.68529e-05
4.30844e-05
1.45193e-05
6.91381e-05
6.91442e-05
2.6788e-05
1.45255e-05
4.30646e-05
1.57796e-05
2.67939e-05
1.45147e-05
4.30516e-05
5.72208e-05
5.7231e-05
1.7551e-05
5.72461e-05
5.72237e-05
4.91357e-05
6.92063e-05
4.90971e-05
6.92061e-05
6.91177e-05
6.91298e-05
4.90463e-05
6.92183e-05
4.90041e-05
6.9219e-05
1.42759e-05
1.42704e-05
1.42738e-05
1.42564e-05
1.42593e-05
1.42538e-05
1.42572e-05
2.67823e-05
4.32318e-05
1.45003e-05
1.57897e-05
2.67882e-05
4.32045e-05
1.44946e-05
6.9141e-05
6.91535e-05
2.68993e-05
1.44957e-05
4.31653e-05
1.5772e-05
2.68933e-05
1.44901e-05
4.31404e-05
5.72134e-05
5.72347e-05
1.75546e-05
5.71353e-05
5.7216e-05
4.92465e-05
6.92046e-05
4.91718e-05
6.92064e-05
6.91294e-05
6.91432e-05
4.90762e-05
6.92176e-05
4.90169e-05
6.92191e-05
1.42554e-05
1.42499e-05
1.42532e-05
1.42469e-05
1.42495e-05
1.42441e-05
1.42473e-05
2.68462e-05
4.31767e-05
1.44884e-05
1.5789e-05
2.6823e-05
4.31642e-05
1.44875e-05
6.91543e-05
6.91659e-05
2.68928e-05
1.44839e-05
4.31259e-05
1.57721e-05
2.68785e-05
1.4483e-05
4.31012e-05
5.71392e-05
5.72245e-05
1.75513e-05
5.71751e-05
5.71944e-05
4.92363e-05
6.92138e-05
4.91908e-05
6.92154e-05
6.91441e-05
6.91533e-05
4.90702e-05
6.92251e-05
4.90952e-05
6.92271e-05
1.42478e-05
1.4242e-05
1.42457e-05
1.42457e-05
1.42476e-05
1.42425e-05
1.42462e-05
2.69575e-05
4.31184e-05
1.44892e-05