/*--------------------------------*- C++ -*----------------------------------*\
| =========                 |                                                 |
| \\      /  F ield         | OpenFOAM: The Open Source CFD Toolbox           |
|  \\    /   O peration     | Version:  v2012                                 |
|   \\  /    A nd           | Website:  www.openfoam.com                      |
|    \\/     M anipulation  |                                                 |
\*---------------------------------------------------------------------------*/
FoamFile
{
    version     2.0;
    format      ascii;
    class       volScalarField;
    location    "25";
    object      p;
}
// * * * * * * * * * * * * * * * * * * * * * * * * * * * * * * * * * * * * * //

dimensions      [0 2 -2 0 0 0 0];


internalField   nonuniform List<scalar> 
171728
(
0.00427324
0.00427369
0.0042738
0.00427611
0.00423265
0.00423351
0.00423338
0.00423651
0.00419001
0.00419022
0.00419014
0.00419285
0.00413686
0.00413678
0.00413675
0.00413962
0.00408096
0.00408061
0.00408061
0.00408378
0.00402613
0.00402581
0.00402582
0.0040286
0.00397748
0.00397722
0.00397722
0.00397999
0.00393181
0.00393174
0.00393174
0.00393442
0.00388659
0.00388654
0.00388654
0.00388922
0.0038414
0.00384136
0.00384136
0.00384403
0.00379621
0.00379618
0.00379618
0.00379885
0.00375103
0.00375099
0.00375099
0.00375367
0.00370585
0.00370582
0.00370582
0.00370849
0.00366068
0.00366064
0.00366064
0.00366331
0.00361551
0.00361547
0.00361547
0.00361814
0.00357034
0.0035703
0.0035703
0.00357297
0.00352516
0.00352513
0.00352513
0.0035278
0.00347999
0.00347995
0.00347995
0.00348263
0.00343482
0.00343478
0.00343478
0.00343745
0.00338965
0.00338961
0.00338961
0.00339228
0.00334447
0.00334444
0.00334444
0.00334711
0.0032993
0.00329926
0.00329926
0.00330194
0.00325413
0.00325409
0.00325409
0.00325677
0.00320896
0.00320892
0.00320892
0.00321159
0.00316379
0.00316375
0.00316375
0.00316642
0.00311862
0.00311858
0.00311858
0.00312125
0.00307345
0.00307341
0.00307341
0.00307609
0.00302829
0.00302825
0.00302825
0.00303092
0.00298312
0.00298308
0.00298308
0.00298576
0.00293796
0.00293792
0.00293792
0.00294059
0.0028928
0.00289276
0.00289276
0.00289543
0.00284763
0.00284759
0.00284759
0.00285027
0.00280247
0.00280243
0.00280243
0.0028051
0.0027573
0.00275726
0.00275726
0.00275994
0.00271213
0.0027121
0.0027121
0.00271477
0.00266697
0.00266693
0.00266693
0.0026696
0.0026218
0.00262176
0.00262176
0.00262443
0.00257663
0.00257659
0.00257659
0.00257926
0.00253145
0.00253142
0.00253142
0.00253409
0.00248628
0.00248624
0.00248624
0.00248892
0.00244111
0.00244107
0.00244107
0.00244375
0.00239594
0.0023959
0.0023959
0.00239857
0.00235077
0.00235073
0.00235073
0.0023534
0.00230559
0.00230556
0.00230556
0.00230823
0.00226042
0.00226038
0.00226038
0.00226306
0.00221525
0.00221521
0.00221521
0.00221788
0.00217008
0.00217004
0.00217004
0.00217271
0.00212491
0.00212487
0.00212487
0.00212754
0.00207974
0.0020797
0.0020797
0.00208237
0.00203456
0.00203453
0.00203453
0.0020372
0.00198939
0.00198936
0.00198936
0.00199203
0.00194422
0.00194418
0.00194418
0.00194686
0.00189905
0.00189901
0.00189901
0.00190168
0.00185388
0.00185384
0.00185384
0.00185651
0.0018087
0.00180866
0.00180866
0.00181134
0.00176353
0.00176349
0.00176349
0.00176616
0.00171836
0.00171832
0.00171832
0.00172099
0.00167318
0.00167314
0.00167314
0.00167582
0.00162801
0.00162797
0.00162797
0.00163064
0.00158283
0.00158279
0.00158279
0.00158547
0.00153766
0.00153762
0.00153762
0.00154029
0.00149249
0.00149245
0.00149245
0.00149512
0.00144732
0.00144728
0.00144728
0.00144995
0.00140215
0.00140211
0.00140211
0.00140478
0.00135698
0.00135694
0.00135694
0.00135961
0.00131181
0.00131178
0.00131178
0.00131445
0.00126665
0.00126661
0.00126661
0.00126928
0.00122148
0.00122145
0.00122145
0.00122412
0.00117632
0.00117628
0.00117628
0.00117896
0.00113116
0.00113112
0.00113112
0.00113379
0.001086
0.00108596
0.00108596
0.00108863
0.00104083
0.00104079
0.00104079
0.00104347
0.000995667
0.000995629
0.000995629
0.000998302
0.000950503
0.000950465
0.000950465
0.000953138
0.000905337
0.000905299
0.000905299
0.000907972
0.000860169
0.000860132
0.000860132
0.000862804
0.000815003
0.000814965
0.000814965
0.000817638
0.000769835
0.000769798
0.000769798
0.000772471
0.000724666
0.000724629
0.000724629
0.000727301
0.000679497
0.00067946
0.00067946
0.000682132
0.000634328
0.00063429
0.00063429
0.000636963
0.000589157
0.000589119
0.000589119
0.000591792
0.000543986
0.000543948
0.000543948
0.000546621
0.000498813
0.000498776
0.000498776
0.000501449
0.000453641
0.000453603
0.000453603
0.000456276
0.000408469
0.000408431
0.000408431
0.000411104
0.000363296
0.000363259
0.000363258
0.000365931
0.000318122
0.000318085
0.000318085
0.000320757
0.000272949
0.000272911
0.000272911
0.000275579
0.000227769
0.000227726
0.000227726
0.000230388
0.000182584
0.000182542
0.000182541
0.000185187
0.000137373
0.000137357
0.000137357
0.000140004
9.22204e-05
9.21673e-05
9.2166e-05
9.47557e-05
4.77746e-05
4.71983e-05
4.7195e-05
4.9644e-05
9.7929e-06
1.00363e-05
1.00344e-05
9.9334e-06
0.00428285
0.00428283
0.00428285
0.00428293
0.00428289
0.00428295
0.00428365
0.00428366
0.00428371
0.00428368
0.00428288
0.0042828
0.004283
0.00428295
0.00428297
0.00428291
0.00427607
0.00424085
0.00427365
0.00427365
0.00424187
0.00424149
0.00427601
0.00424078
0.00427381
0.00427378
0.00424171
0.00424154
0.00427364
0.00424167
0.00424189
0.00427622
0.00424079
0.00427381
0.00424131
0.00424164
0.00424075
0.00423656
0.00419898
0.00423354
0.00423335
0.00420233
0.00420228
0.00423652
0.00419914
0.00423322
0.00423327
0.00420243
0.00420229
0.00423349
0.00420235
0.00420236
0.00423648
0.00419899
0.00423346
0.00420204
0.00420233
0.00419911
0.00419276
0.00414674
0.00419019
0.0041902
0.00415066
0.00415066
0.00419287
0.00414676
0.00419025
0.00419015
0.00415065
0.00415063
0.00419023
0.00415067
0.00415066
0.00419272
0.00414673
0.00419019
0.0041506
0.00415064
0.00414675
0.00413962
0.00409125
0.00413678
0.00413678
0.0040951
0.00409511
0.00413963
0.00409125
0.00413677
0.00413677
0.0040951
0.0040951
0.00413677
0.0040951
0.0040951
0.00413961
0.00409125
0.00413676
0.0040951
0.0040951
0.00409124
0.00408379
0.00403561
0.00408061
0.00408062
0.00403912
0.00403912
0.00408379
0.00403561
0.00408061
0.00408061
0.00403912
0.00403912
0.00408061
0.00403912
0.00403912
0.00408379
0.00403561
0.00408061
0.00403912
0.00403912
0.00403561
0.0040286
0.00398605
0.00402581
0.00402581
0.00398883
0.00398883
0.0040286
0.00398605
0.00402581
0.00402581
0.00398883
0.00398883
0.00402581
0.00398883
0.00398883
0.0040286
0.00398605
0.00402582
0.00398882
0.00398883
0.00398605
0.00397999
0.00394036
0.00397722
0.00397722
0.00394305
0.00394305
0.00397999
0.00394036
0.00397722
0.00397722
0.00394305
0.00394305
0.00397722
0.00394305
0.00394305
0.00397999
0.00394036
0.00397722
0.00394305
0.00394305
0.00394036
0.00393442
0.00389516
0.00393174
0.00393174
0.00389784
0.00389784
0.00393442
0.00389516
0.00393174
0.00393174
0.00389784
0.00389784
0.00393174
0.00389784
0.00389784
0.00393442
0.00389516
0.00393174
0.00389784
0.00389784
0.00389516
0.00388922
0.00384998
0.00388655
0.00388654
0.00385266
0.00385266
0.00388922
0.00384998
0.00388655
0.00388654
0.00385266
0.00385266
0.00388655
0.00385266
0.00385266
0.00388922
0.00384998
0.00388655
0.00385266
0.00385266
0.00384998
0.00384403
0.00380479
0.00384136
0.00384136
0.00380747
0.00380747
0.00384403
0.00380479
0.00384136
0.00384136
0.00380747
0.00380747
0.00384136
0.00380747
0.00380747
0.00384403
0.00380479
0.00384136
0.00380747
0.00380747
0.00380479
0.00379885
0.00375961
0.00379618
0.00379618
0.00376229
0.00376229
0.00379885
0.00375961
0.00379618
0.00379618
0.00376229
0.00376229
0.00379618
0.00376229
0.00376229
0.00379885
0.00375961
0.00379618
0.00376229
0.00376229
0.00375961
0.00375367
0.00371443
0.00375099
0.00375099
0.00371711
0.00371711
0.00375367
0.00371443
0.00375099
0.00375099
0.00371711
0.00371711
0.00375099
0.00371711
0.00371711
0.00375367
0.00371443
0.00375099
0.00371711
0.00371711
0.00371443
0.00370849
0.00366926
0.00370582
0.00370582
0.00367193
0.00367194
0.00370849
0.00366926
0.00370582
0.00370582
0.00367193
0.00367193
0.00370582
0.00367194
0.00367193
0.00370849
0.00366926
0.00370582
0.00367193
0.00367193
0.00366926
0.00366331
0.00362408
0.00366064
0.00366064
0.00362676
0.00362676
0.00366331
0.00362408
0.00366064
0.00366064
0.00362676
0.00362676
0.00366064
0.00362676
0.00362676
0.00366331
0.00362408
0.00366064
0.00362676
0.00362676
0.00362408
0.00361814
0.00357891
0.00361547
0.00361547
0.00358159
0.00358159
0.00361814
0.00357891
0.00361547
0.00361547
0.00358159
0.00358159
0.00361547
0.00358159
0.00358159
0.00361814
0.00357891
0.00361547
0.00358159
0.00358159
0.00357891
0.00357297
0.00353374
0.0035703
0.0035703
0.00353642
0.00353642
0.00357297
0.00353374
0.0035703
0.0035703
0.00353642
0.00353642
0.0035703
0.00353642
0.00353642
0.00357297
0.00353374
0.0035703
0.00353642
0.00353642
0.00353374
0.0035278
0.00348857
0.00352513
0.00352513
0.00349125
0.00349125
0.0035278
0.00348857
0.00352513
0.00352513
0.00349125
0.00349125
0.00352513
0.00349125
0.00349125
0.0035278
0.00348857
0.00352513
0.00349125
0.00349125
0.00348857
0.00348263
0.0034434
0.00347995
0.00347995
0.00344608
0.00344608
0.00348263
0.0034434
0.00347995
0.00347995
0.00344607
0.00344607
0.00347995
0.00344607
0.00344607
0.00348263
0.0034434
0.00347995
0.00344607
0.00344607
0.0034434
0.00343745
0.00339822
0.00343478
0.00343478
0.0034009
0.0034009
0.00343745
0.00339822
0.00343478
0.00343478
0.0034009
0.0034009
0.00343478
0.0034009
0.0034009
0.00343745
0.00339822
0.00343478
0.0034009
0.0034009
0.00339822
0.00339228
0.00335305
0.00338961
0.00338961
0.00335573
0.00335573
0.00339228
0.00335305
0.00338961
0.00338961
0.00335573
0.00335573
0.00338961
0.00335573
0.00335573
0.00339228
0.00335305
0.00338961
0.00335573
0.00335573
0.00335305
0.00334711
0.00330788
0.00334444
0.00334444
0.00331056
0.00331056
0.00334711
0.00330788
0.00334444
0.00334444
0.00331056
0.00331056
0.00334444
0.00331056
0.00331056
0.00334711
0.00330788
0.00334444
0.00331056
0.00331056
0.00330788
0.00330194
0.00326271
0.00329926
0.00329926
0.00326539
0.00326539
0.00330194
0.00326271
0.00329926
0.00329926
0.00326539
0.00326539
0.00329926
0.00326539
0.00326539
0.00330194
0.00326271
0.00329927
0.00326539
0.00326539
0.00326271
0.00325677
0.00321754
0.00325409
0.00325409
0.00322021
0.00322021
0.00325677
0.00321754
0.00325409
0.00325409
0.00322021
0.00322021
0.00325409
0.00322021
0.00322021
0.00325677
0.00321754
0.00325409
0.00322021
0.00322021
0.00321754
0.00321159
0.00317236
0.00320892
0.00320892
0.00317504
0.00317504
0.00321159
0.00317236
0.00320892
0.00320892
0.00317504
0.00317504
0.00320892
0.00317504
0.00317504
0.00321159
0.00317237
0.00320892
0.00317504
0.00317504
0.00317236
0.00316642
0.0031272
0.00316375
0.00316375
0.00312987
0.00312987
0.00316642
0.0031272
0.00316375
0.00316375
0.00312987
0.00312987
0.00316375
0.00312987
0.00312987
0.00316642
0.0031272
0.00316375
0.00312987
0.00312987
0.0031272
0.00312125
0.00308203
0.00311858
0.00311858
0.00308471
0.00308471
0.00312125
0.00308203
0.00311858
0.00311858
0.00308471
0.00308471
0.00311858
0.00308471
0.00308471
0.00312125
0.00308203
0.00311858
0.00308471
0.00308471
0.00308203
0.00307609
0.00303686
0.00307342
0.00307341
0.00303954
0.00303954
0.00307609
0.00303686
0.00307341
0.00307341
0.00303954
0.00303954
0.00307342
0.00303954
0.00303954
0.00307609
0.00303686
0.00307342
0.00303954
0.00303954
0.00303686
0.00303092
0.0029917
0.00302825
0.00302825
0.00299438
0.00299438
0.00303092
0.0029917
0.00302825
0.00302825
0.00299438
0.00299438
0.00302825
0.00299438
0.00299438
0.00303092
0.0029917
0.00302825
0.00299438
0.00299438
0.0029917
0.00298576
0.00294653
0.00298308
0.00298308
0.00294921
0.00294921
0.00298576
0.00294653
0.00298308
0.00298308
0.00294921
0.00294921
0.00298308
0.00294921
0.00294921
0.00298576
0.00294653
0.00298308
0.00294921
0.00294921
0.00294653
0.00294059
0.00290137
0.00293792
0.00293792
0.00290405
0.00290405
0.00294059
0.00290137
0.00293792
0.00293792
0.00290405
0.00290405
0.00293792
0.00290405
0.00290405
0.00294059
0.00290137
0.00293792
0.00290405
0.00290405
0.00290137
0.00289543
0.00285621
0.00289276
0.00289276
0.00285889
0.00285888
0.00289543
0.00285621
0.00289276
0.00289276
0.00285888
0.00285889
0.00289276
0.00285888
0.00285889
0.00289543
0.00285621
0.00289276
0.00285889
0.00285889
0.00285621
0.00285027
0.00281104
0.00284759
0.00284759
0.00281372
0.00281372
0.00285027
0.00281104
0.00284759
0.00284759
0.00281372
0.00281372
0.00284759
0.00281372
0.00281372
0.00285027
0.00281104
0.00284759
0.00281372
0.00281372
0.00281104
0.0028051
0.00276588
0.00280243
0.00280243
0.00276855
0.00276855
0.0028051
0.00276588
0.00280243
0.00280243
0.00276855
0.00276856
0.00280243
0.00276855
0.00276855
0.0028051
0.00276588
0.00280243
0.00276856
0.00276856
0.00276588
0.00275994
0.00272071
0.00275726
0.00275726
0.00272339
0.00272339
0.00275994
0.00272071
0.00275726
0.00275726
0.00272339
0.00272339
0.00275726
0.00272339
0.00272339
0.00275994
0.00272071
0.00275726
0.00272339
0.00272339
0.00272071
0.00271477
0.00267554
0.0027121
0.0027121
0.00267822
0.00267822
0.00271477
0.00267554
0.0027121
0.0027121
0.00267822
0.00267822
0.0027121
0.00267822
0.00267822
0.00271477
0.00267554
0.0027121
0.00267822
0.00267822
0.00267554
0.0026696
0.00263037
0.00266693
0.00266693
0.00263305
0.00263305
0.0026696
0.00263037
0.00266693
0.00266693
0.00263305
0.00263305
0.00266693
0.00263305
0.00263305
0.0026696
0.00263037
0.00266693
0.00263305
0.00263305
0.00263037
0.00262443
0.0025852
0.00262176
0.00262176
0.00258788
0.00258788
0.00262443
0.0025852
0.00262176
0.00262176
0.00258788
0.00258788
0.00262176
0.00258788
0.00258788
0.00262443
0.0025852
0.00262176
0.00258788
0.00258788
0.0025852
0.00257926
0.00254003
0.00257659
0.00257659
0.00254271
0.00254271
0.00257926
0.00254003
0.00257659
0.00257659
0.00254271
0.00254271
0.00257659
0.00254271
0.00254271
0.00257926
0.00254003
0.00257659
0.00254271
0.00254271
0.00254003
0.00253409
0.00249486
0.00253142
0.00253142
0.00249754
0.00249754
0.00253409
0.00249486
0.00253142
0.00253142
0.00249754
0.00249754
0.00253142
0.00249754
0.00249754
0.00253409
0.00249486
0.00253142
0.00249754
0.00249754
0.00249486
0.00248892
0.00244969
0.00248625
0.00248624
0.00245237
0.00245237
0.00248892
0.00244969
0.00248624
0.00248625
0.00245237
0.00245237
0.00248624
0.00245237
0.00245237
0.00248892
0.00244969
0.00248625
0.00245237
0.00245237
0.00244969
0.00244375
0.00240451
0.00244107
0.00244107
0.00240719
0.00240719
0.00244375
0.00240452
0.00244107
0.00244107
0.00240719
0.00240719
0.00244107
0.00240719
0.00240719
0.00244375
0.00240451
0.00244107
0.00240719
0.00240719
0.00240451
0.00239857
0.00235934
0.0023959
0.0023959
0.00236202
0.00236202
0.00239857
0.00235934
0.0023959
0.0023959
0.00236202
0.00236202
0.0023959
0.00236202
0.00236202
0.00239857
0.00235934
0.0023959
0.00236202
0.00236202
0.00235934
0.0023534
0.00231417
0.00235073
0.00235073
0.00231685
0.00231685
0.0023534
0.00231417
0.00235073
0.00235073
0.00231685
0.00231685
0.00235073
0.00231685
0.00231685
0.0023534
0.00231417
0.00235073
0.00231685
0.00231685
0.00231417
0.00230823
0.002269
0.00230556
0.00230556
0.00227168
0.00227168
0.00230823
0.002269
0.00230556
0.00230556
0.00227168
0.00227168
0.00230556
0.00227168
0.00227168
0.00230823
0.002269
0.00230556
0.00227168
0.00227168
0.002269
0.00226306
0.00222383
0.00226038
0.00226038
0.0022265
0.0022265
0.00226306
0.00222383
0.00226038
0.00226038
0.0022265
0.00222651
0.00226038
0.0022265
0.0022265
0.00226306
0.00222383
0.00226038
0.00222651
0.0022265
0.00222383
0.00221788
0.00217865
0.00221521
0.00221521
0.00218133
0.00218133
0.00221788
0.00217865
0.00221521
0.00221521
0.00218133
0.00218133
0.00221521
0.00218133
0.00218133
0.00221788
0.00217865
0.00221521
0.00218133
0.00218133
0.00217865
0.00217271
0.00213348
0.00217004
0.00217004
0.00213616
0.00213616
0.00217271
0.00213348
0.00217004
0.00217004
0.00213616
0.00213616
0.00217004
0.00213616
0.00213616
0.00217271
0.00213348
0.00217004
0.00213616
0.00213616
0.00213348
0.00212754
0.00208831
0.00212487
0.00212487
0.00209099
0.00209099
0.00212754
0.00208831
0.00212487
0.00212487
0.00209099
0.00209099
0.00212487
0.00209099
0.00209099
0.00212754
0.00208831
0.00212487
0.00209099
0.00209099
0.00208831
0.00208237
0.00204314
0.0020797
0.0020797
0.00204582
0.00204582
0.00208237
0.00204314
0.0020797
0.0020797
0.00204582
0.00204582
0.0020797
0.00204582
0.00204582
0.00208237
0.00204314
0.0020797
0.00204582
0.00204582
0.00204314
0.0020372
0.00199797
0.00203453
0.00203453
0.00200065
0.00200065
0.0020372
0.00199797
0.00203453
0.00203453
0.00200065
0.00200065
0.00203453
0.00200065
0.00200065
0.0020372
0.00199797
0.00203453
0.00200065
0.00200065
0.00199797
0.00199203
0.0019528
0.00198936
0.00198936
0.00195548
0.00195548
0.00199203
0.0019528
0.00198936
0.00198936
0.00195548
0.00195548
0.00198936
0.00195548
0.00195548
0.00199203
0.0019528
0.00198936
0.00195548
0.00195548
0.0019528
0.00194686
0.00190762
0.00194418
0.00194418
0.0019103
0.0019103
0.00194686
0.00190762
0.00194418
0.00194418
0.0019103
0.0019103
0.00194418
0.0019103
0.0019103
0.00194686
0.00190762
0.00194418
0.0019103
0.0019103
0.00190762
0.00190168
0.00186245
0.00189901
0.00189901
0.00186513
0.00186513
0.00190168
0.00186245
0.00189901
0.00189901
0.00186513
0.00186513
0.00189901
0.00186513
0.00186513
0.00190168
0.00186245
0.00189901
0.00186513
0.00186513
0.00186245
0.00185651
0.00181728
0.00185384
0.00185384
0.00181996
0.00181996
0.00185651
0.00181728
0.00185384
0.00185384
0.00181996
0.00181996
0.00185384
0.00181996
0.00181996
0.00185651
0.00181728
0.00185384
0.00181996
0.00181996
0.00181728
0.00181134
0.00177211
0.00180866
0.00180866
0.00177478
0.00177478
0.00181134
0.00177211
0.00180866
0.00180866
0.00177478
0.00177478
0.00180866
0.00177478
0.00177478
0.00181134
0.00177211
0.00180866
0.00177478
0.00177478
0.00177211
0.00176616
0.00172693
0.00176349
0.00176349
0.00172961
0.00172961
0.00176616
0.00172693
0.00176349
0.00176349
0.00172961
0.00172961
0.00176349
0.00172961
0.00172961
0.00176616
0.00172693
0.00176349
0.00172961
0.00172961
0.00172693
0.00172099
0.00168176
0.00171832
0.00171832
0.00168444
0.00168444
0.00172099
0.00168176
0.00171832
0.00171832
0.00168444
0.00168444
0.00171832
0.00168444
0.00168444
0.00172099
0.00168176
0.00171832
0.00168444
0.00168444
0.00168176
0.00167582
0.00163658
0.00167314
0.00167314
0.00163926
0.00163926
0.00167582
0.00163658
0.00167314
0.00167314
0.00163926
0.00163926
0.00167314
0.00163926
0.00163926
0.00167582
0.00163658
0.00167314
0.00163926
0.00163926
0.00163658
0.00163064
0.00159141
0.00162797
0.00162797
0.00159409
0.00159409
0.00163064
0.00159141
0.00162797
0.00162797
0.00159409
0.00159409
0.00162797
0.00159409
0.00159409
0.00163064
0.00159141
0.00162797
0.00159409
0.00159409
0.00159141
0.00158547
0.00154624
0.00158279
0.00158279
0.00154891
0.00154891
0.00158547
0.00154624
0.00158279
0.00158279
0.00154891
0.00154891
0.00158279
0.00154891
0.00154891
0.00158547
0.00154624
0.00158279
0.00154891
0.00154891
0.00154624
0.00154029
0.00150106
0.00153762
0.00153762
0.00150374
0.00150374
0.00154029
0.00150106
0.00153762
0.00153762
0.00150374
0.00150374
0.00153762
0.00150374
0.00150374
0.00154029
0.00150106
0.00153762
0.00150374
0.00150374
0.00150106
0.00149512
0.00145589
0.00149245
0.00149245
0.00145857
0.00145857
0.00149512
0.00145589
0.00149245
0.00149245
0.00145857
0.00145857
0.00149245
0.00145857
0.00145857
0.00149512
0.00145589
0.00149245
0.00145857
0.00145857
0.00145589
0.00144995
0.00141072
0.00144728
0.00144728
0.0014134
0.0014134
0.00144995
0.00141072
0.00144728
0.00144728
0.0014134
0.0014134
0.00144728
0.0014134
0.0014134
0.00144995
0.00141072
0.00144728
0.0014134
0.0014134
0.00141072
0.00140478
0.00136555
0.00140211
0.00140211
0.00136823
0.00136823
0.00140478
0.00136555
0.00140211
0.00140211
0.00136823
0.00136823
0.00140211
0.00136823
0.00136823
0.00140478
0.00136555
0.00140211
0.00136823
0.00136823
0.00136555
0.00135961
0.00132039
0.00135694
0.00135694
0.00132307
0.00132307
0.00135961
0.00132039
0.00135694
0.00135694
0.00132307
0.00132307
0.00135694
0.00132307
0.00132307
0.00135961
0.00132039
0.00135694
0.00132307
0.00132307
0.00132039
0.00131445
0.00127522
0.00131178
0.00131178
0.0012779
0.0012779
0.00131445
0.00127522
0.00131178
0.00131178
0.0012779
0.0012779
0.00131178
0.0012779
0.0012779
0.00131445
0.00127522
0.00131178
0.0012779
0.0012779
0.00127522
0.00126928
0.00123006
0.00126661
0.00126661
0.00123274
0.00123274
0.00126928
0.00123006
0.00126661
0.00126661
0.00123274
0.00123274
0.00126661
0.00123274
0.00123274
0.00126928
0.00123006
0.00126661
0.00123274
0.00123274
0.00123006
0.00122412
0.0011849
0.00122145
0.00122145
0.00118757
0.00118757
0.00122412
0.0011849
0.00122145
0.00122145
0.00118757
0.00118757
0.00122145
0.00118757
0.00118757
0.00122412
0.0011849
0.00122145
0.00118757
0.00118757
0.0011849
0.00117896
0.00113973
0.00117628
0.00117628
0.00114241
0.00114241
0.00117896
0.00113973
0.00117628
0.00117628
0.00114241
0.00114241
0.00117628
0.00114241
0.00114241
0.00117896
0.00113973
0.00117628
0.00114241
0.00114241
0.00113973
0.00113379
0.00109457
0.00113112
0.00113112
0.00109725
0.00109725
0.00113379
0.00109457
0.00113112
0.00113112
0.00109725
0.00109725
0.00113112
0.00109725
0.00109725
0.00113379
0.00109457
0.00113112
0.00109725
0.00109725
0.00109457
0.00108863
0.00104941
0.00108596
0.00108596
0.00105209
0.00105208
0.00108863
0.00104941
0.00108596
0.00108596
0.00105208
0.00105209
0.00108596
0.00105209
0.00105209
0.00108863
0.00104941
0.00108596
0.00105209
0.00105209
0.00104941
0.00104347
0.00100424
0.00104079
0.00104079
0.00100692
0.00100692
0.00104347
0.00100424
0.00104079
0.00104079
0.00100692
0.00100692
0.00104079
0.00100692
0.00100692
0.00104347
0.00100424
0.00104079
0.00100692
0.00100692
0.00100424
0.000998302
0.000959078
0.000995629
0.000995629
0.000961757
0.000961756
0.000998301
0.000959078
0.000995629
0.000995629
0.000961756
0.000961756
0.000995629
0.000961756
0.000961757
0.000998302
0.000959078
0.000995629
0.000961756
0.000961756
0.000959078
0.000953138
0.000913912
0.000950465
0.000950465
0.000916591
0.000916591
0.000953138
0.000913912
0.000950465
0.000950465
0.000916591
0.000916591
0.000950466
0.000916591
0.000916591
0.000953138
0.000913912
0.000950465
0.000916591
0.000916591
0.000913912
0.000907972
0.000868745
0.000905299
0.000905299
0.000871424
0.000871424
0.000907972
0.000868745
0.000905299
0.000905299
0.000871424
0.000871424
0.0009053
0.000871424
0.000871424
0.000907972
0.000868745
0.000905299
0.000871424
0.000871424
0.000868745
0.000862804
0.000823578
0.000860132
0.000860132
0.000826257
0.000826257
0.000862804
0.000823578
0.000860132
0.000860132
0.000826257
0.000826257
0.000860132
0.000826257
0.000826257
0.000862804
0.000823578
0.000860132
0.000826257
0.000826257
0.000823578
0.000817638
0.000778411
0.000814965
0.000814965
0.00078109
0.00078109
0.000817638
0.000778411
0.000814965
0.000814965
0.00078109
0.00078109
0.000814966
0.00078109
0.00078109
0.000817638
0.000778411
0.000814965
0.00078109
0.00078109
0.000778411
0.00077247
0.000733242
0.000769798
0.000769798
0.000735921
0.000735921
0.00077247
0.000733242
0.000769798
0.000769798
0.000735921
0.000735921
0.000769798
0.000735921
0.000735921
0.00077247
0.000733242
0.000769798
0.000735921
0.000735921
0.000733242
0.000727301
0.000688073
0.000724629
0.000724629
0.000690752
0.000690752
0.000727301
0.000688073
0.000724629
0.000724629
0.000690752
0.000690752
0.000724629
0.000690752
0.000690752
0.000727301
0.000688073
0.000724629
0.000690752
0.000690752
0.000688073
0.000682132
0.000642904
0.00067946
0.00067946
0.000645583
0.000645583
0.000682132
0.000642904
0.00067946
0.00067946
0.000645583
0.000645583
0.00067946
0.000645583
0.000645583
0.000682132
0.000642903
0.00067946
0.000645583
0.000645583
0.000642904
0.000636963
0.000597733
0.00063429
0.00063429
0.000600412
0.000600412
0.000636963
0.000597733
0.00063429
0.00063429
0.000600412
0.000600412
0.00063429
0.000600412
0.000600412
0.000636963
0.000597733
0.00063429
0.000600412
0.000600412
0.000597733
0.000591792
0.000552562
0.00058912
0.000589119
0.000555241
0.000555241
0.000591792
0.000552562
0.000589119
0.000589119
0.000555241
0.000555241
0.00058912
0.000555241
0.000555241
0.000591792
0.000552562
0.000589119
0.000555241
0.000555241
0.000552562
0.000546621
0.00050739
0.000543948
0.000543948
0.000510069
0.000510069
0.000546621
0.00050739
0.000543948
0.000543948
0.000510069
0.000510069
0.000543948
0.000510069
0.000510069
0.000546621
0.00050739
0.000543948
0.000510069
0.000510069
0.00050739
0.000501448
0.000462217
0.000498776
0.000498776
0.000464897
0.000464897
0.000501448
0.000462217
0.000498776
0.000498776
0.000464897
0.000464897
0.000498776
0.000464897
0.000464897
0.000501448
0.000462217
0.000498776
0.000464897
0.000464896
0.000462217
0.000456276
0.000417045
0.000453604
0.000453603
0.000419725
0.000419724
0.000456276
0.000417046
0.000453603
0.000453604
0.000419724
0.000419725
0.000453604
0.000419724
0.000419725
0.000456276
0.000417045
0.000453603
0.000419724
0.000419724
0.000417045
0.000411104
0.000371873
0.000408432
0.000408431
0.000374552
0.000374552
0.000411104
0.000371873
0.000408431
0.000408431
0.000374552
0.000374552
0.000408432
0.000374552
0.000374552
0.000411104
0.000371872
0.000408431
0.000374552
0.000374552
0.000371873
0.000365931
0.000326698
0.000363259
0.000363258
0.000329377
0.000329377
0.000365931
0.000326698
0.000363258
0.000363258
0.000329377
0.000329377
0.000363259
0.000329377
0.000329377
0.000365931
0.000326698
0.000363259
0.000329377
0.000329377
0.000326698
0.000320757
0.000281523
0.000318085
0.000318085
0.000284202
0.000284202
0.000320757
0.000281523
0.000318084
0.000318085
0.000284202
0.000284202
0.000318085
0.000284202
0.000284202
0.000320757
0.000281523
0.000318085
0.000284202
0.000284202
0.000281523
0.00027558
0.000236347
0.000272911
0.000272911
0.000239024
0.000239024
0.000275579
0.000236348
0.000272911
0.000272911
0.000239024
0.000239024
0.000272911
0.000239024
0.000239024
0.00027558
0.000236347
0.000272911
0.000239024
0.000239024
0.000236347
0.000230388
0.000191168
0.000227726
0.000227726
0.000193848
0.000193849
0.000230388
0.000191168
0.000227726
0.000227726
0.00019385
0.000193848
0.000227726
0.00019385
0.000193848
0.000230388
0.000191168
0.000227726
0.000193849
0.000193849
0.000191168
0.000185187
0.000146013
0.000182542
0.000182542
0.000148662
0.000148663
0.000185188
0.000146014
0.000182542
0.000182541
0.000148662
0.000148662
0.000182542
0.000148663
0.000148662
0.000185187
0.000146013
0.000182542
0.000148662
0.000148662
0.000146013
0.000140005
0.000100782
0.000137357
0.000137358
0.000103449
0.000103449
0.000140005
0.000100783
0.000137357
0.000137357
0.000103448
0.000103448
0.000137357
0.000103449
0.000103448
0.000140004
0.000100781
0.000137357
0.000103448
0.000103448
0.000100781
9.47569e-05
5.56929e-05
9.21676e-05
9.21682e-05
5.83523e-05
5.83529e-05
9.47571e-05
5.56939e-05
9.21667e-05
9.21661e-05
5.835e-05
5.83494e-05
9.21666e-05
5.83512e-05
5.83494e-05
9.47563e-05
5.56902e-05
9.21662e-05
5.83483e-05
5.83478e-05
5.56898e-05
4.96481e-05
1.40693e-05
4.72003e-05
4.72002e-05
1.65964e-05
1.6596e-05
4.96484e-05
1.40697e-05
4.71983e-05
4.71967e-05
1.65945e-05
1.65912e-05
4.71956e-05
1.65929e-05
1.65888e-05
4.96448e-05
1.40651e-05
4.71945e-05
1.65907e-05
1.65902e-05
1.40638e-05
9.93677e-06
1.00382e-05
1.00382e-05
9.93849e-06
1.00359e-05
1.00342e-05
9.79239e-06
9.79055e-06
9.78984e-06
1.00328e-05
9.93436e-06
1.0033e-05
0.00428897
0.00429583
0.00429215
0.00429219
0.00430966
0.00429885
0.00432192
0.00429429
0.00430955
0.00429891
0.00429429
0.00432219
0.00430292
0.00432389
0.00432406
0.00425566
0.00427081
0.00427529
0.00424688
0.00424764
0.00425089
0.00425532
0.00427107
0.00427513
0.00424795
0.00427324
0.0042733
0.00427331
0.00424158
0.00424149
0.0042416
0.00424147
0.00425449
0.00427111
0.00427365
0.00426162
0.00427617
0.0042519
0.00426221
0.00424807
0.00425083
0.00425442
0.00427375
0.00427133
0.00426162
0.00427618
0.00426224
0.00425233
0.00427659
0.00427587
0.00425765
0.00425183
0.00425152
0.00422445
0.0042398
0.00424201
0.00422231
0.00423746
0.00422101
0.0042244
0.00424043
0.00424192
0.00422256
0.00423261
0.00423262
0.00423257
0.00420216
0.00420226
0.00420214
0.00420223
0.00422119
0.00424049
0.00423253
0.00422435
0.00423853
0.00422308
0.00422338
0.00423744
0.00422069
0.00422114
0.00423251
0.00424025
0.00422435
0.00423834
0.00422336
0.00422216
0.0042413
0.00424128
0.00422135
0.0042237
0.00422362
0.0041782
0.00419425
0.00419786
0.00417438
0.00419278
0.00417307
0.00417813
0.00419401
0.00419777
0.0041742
0.00419009
0.00418999
0.00419007
0.00415065
0.00415068
0.00415063
0.00415066
0.00417426
0.0041956
0.00418957
0.00417746
0.00419368
0.0041761
0.00417678
0.00419264
0.00417304
0.00417415
0.00418944
0.00419556
0.00417739
0.00419352
0.00417668
0.00417583
0.00419555
0.00419545
0.00417364
0.00417575
0.00417571
0.00412111
0.00413916
0.00414288
0.00411811
0.00413802
0.00411714
0.0041211
0.00413912
0.00414286
0.0041181
0.00413688
0.00413684
0.00413686
0.00409506
0.00409506
0.00409505
0.00409506
0.00411919
0.00414122
0.00413643
0.00412319
0.00413985
0.00412018
0.00412278
0.00413803
0.00411715
0.00411918
0.0041364
0.00414111
0.00412317
0.00413982
0.00412277
0.00412016
0.0041403
0.00414029
0.00411936
0.00411911
0.0041191
0.00406306
0.00408317
0.00408502
0.00406168
0.00408282
0.00406105
0.00406306
0.00408317
0.00408502
0.00406168
0.00408096
0.00408096
0.00408096
0.00403939
0.00403938
0.00403939
0.00403939
0.0040629
0.00408454
0.00408062
0.00406651
0.00408407
0.0040631
0.00406656
0.00408282
0.00406106
0.0040629
0.00408062
0.00408454
0.00406651
0.00408407
0.00406656
0.0040631
0.00408422
0.00408422
0.00406324
0.00406237
0.00406237
0.00400845
0.00402654
0.00402676
0.00400815
0.00402619
0.00400814
0.00400845
0.00402653
0.00402676
0.00400815
0.00402613
0.00402613
0.00402614
0.00398916
0.00398916
0.00398915
0.00398915
0.00400916
0.00402769
0.00402608
0.00401295
0.0040277
0.00400887
0.00401315
0.00402618
0.00400815
0.00400914
0.00402612
0.00402768
0.00401295