/*--------------------------------*- C++ -*----------------------------------*\
| =========                 |                                                 |
| \\      /  F ield         | OpenFOAM: The Open Source CFD Toolbox           |
|  \\    /   O peration     | Version:  v2012                                 |
|   \\  /    A nd           | Website:  www.openfoam.com                      |
|    \\/     M anipulation  |                                                 |
\*---------------------------------------------------------------------------*/
FoamFile
{
    version     2.0;
    format      ascii;
    class       volScalarField;
    location    "875";
    object      epsilon;
}
// * * * * * * * * * * * * * * * * * * * * * * * * * * * * * * * * * * * * * //

dimensions      [0 2 -3 0 0 0 0];


internalField   nonuniform List<scalar> 
85864
(
4.95567e-07
4.9733e-07
4.9733e-07
4.99575e-07
4.45573e-07
4.53735e-07
4.53737e-07
4.6371e-07
4.03752e-07
4.18513e-07
4.18517e-07
4.39411e-07
3.68363e-07
3.88552e-07
3.88558e-07
4.17667e-07
3.38015e-07
3.62102e-07
3.6211e-07
3.96081e-07
3.11646e-07
3.38273e-07
3.38281e-07
3.74581e-07
2.88473e-07
3.16638e-07
3.16646e-07
3.5371e-07
2.67923e-07
2.97021e-07
2.97031e-07
3.34148e-07
2.4958e-07
2.7937e-07
2.79379e-07
3.16484e-07
2.33137e-07
2.63679e-07
2.63688e-07
3.01162e-07
2.18366e-07
2.49955e-07
2.49964e-07
2.88494e-07
2.0509e-07
2.38198e-07
2.38208e-07
2.78697e-07
1.93172e-07
2.28412e-07
2.28422e-07
2.71879e-07
1.82498e-07
2.20601e-07
2.20612e-07
2.68164e-07
1.72979e-07
2.14774e-07
2.14787e-07
2.67642e-07
1.64541e-07
2.10938e-07
2.10954e-07
2.7049e-07
1.57122e-07
2.09107e-07
2.09126e-07
2.76695e-07
1.50668e-07
2.09297e-07
2.09319e-07
2.86285e-07
1.45137e-07
2.1155e-07
2.11577e-07
2.99237e-07
1.40492e-07
2.15886e-07
2.15917e-07
3.15612e-07
1.36703e-07
2.22325e-07
2.22359e-07
3.35364e-07
1.33748e-07
2.30886e-07
2.30923e-07
3.58391e-07
1.31605e-07
2.41552e-07
2.41593e-07
3.84529e-07
1.30258e-07
2.54305e-07
2.5435e-07
4.13525e-07
1.29696e-07
2.69099e-07
2.69148e-07
4.45036e-07
1.29921e-07
2.85869e-07
2.85923e-07
4.78679e-07
1.3091e-07
3.04529e-07
3.04588e-07
5.14019e-07
1.32666e-07
3.24975e-07
3.25039e-07
5.50614e-07
1.35188e-07
3.47087e-07
3.47155e-07
5.88012e-07
1.38479e-07
3.70729e-07
3.70802e-07
6.25796e-07
1.42541e-07
3.95755e-07
3.95832e-07
6.63578e-07
1.47378e-07
4.22005e-07
4.22087e-07
7.01034e-07
1.52997e-07
4.49318e-07
4.49404e-07
7.37888e-07
1.59403e-07
4.77521e-07
4.77611e-07
7.73931e-07
1.666e-07
5.06436e-07
5.06529e-07
8.08998e-07
1.74591e-07
5.35891e-07
5.35988e-07
8.42955e-07
1.83377e-07
5.65705e-07
5.65805e-07
8.75763e-07
1.92951e-07
5.95708e-07
5.95811e-07
9.07389e-07
2.03306e-07
6.25724e-07
6.2583e-07
9.37804e-07
2.14428e-07
6.55607e-07
6.55717e-07
9.67021e-07
2.2629e-07
6.85189e-07
6.853e-07
9.95023e-07
2.38867e-07
7.14345e-07
7.1446e-07
1.02184e-06
2.52131e-07
7.42958e-07
7.43074e-07
1.04751e-06
2.66025e-07
7.70907e-07
7.71025e-07
1.07205e-06
2.80509e-07
7.981e-07
7.98217e-07
1.0955e-06
2.9552e-07
8.24463e-07
8.2458e-07
1.11789e-06
3.10993e-07
8.4992e-07
8.50035e-07
1.13926e-06
5.06417e-07
5.05584e-07
5.05582e-07
5.06417e-07
5.05583e-07
5.05582e-07
5.09649e-07
5.09649e-07
5.09649e-07
5.09649e-07
5.05584e-07
5.05584e-07
5.06418e-07
5.05584e-07
5.05583e-07
5.06418e-07
4.99575e-07
4.67237e-07
4.97331e-07
4.97335e-07
4.63713e-07
4.63721e-07
4.99575e-07
4.67235e-07
4.97335e-07
4.97336e-07
4.63718e-07
4.63724e-07
4.97332e-07
4.63709e-07
4.63714e-07
4.99575e-07
4.67241e-07
4.97334e-07
4.6371e-07
4.63719e-07
4.6724e-07
4.63709e-07
4.41426e-07
4.5374e-07
4.53748e-07
4.26738e-07
4.26747e-07
4.63708e-07
4.4142e-07
4.53744e-07
4.53751e-07
4.26739e-07
4.26751e-07
4.53741e-07
4.26729e-07
4.26741e-07
4.63711e-07
4.41431e-07
4.53744e-07
4.26734e-07
4.26741e-07
4.41429e-07
4.39407e-07
4.19283e-07
4.18522e-07
4.1853e-07
3.95676e-07
3.95682e-07
4.39405e-07
4.19275e-07
4.18522e-07
4.18535e-07
3.95672e-07
3.95689e-07
4.18525e-07
3.95663e-07
3.95679e-07
4.39413e-07
4.19289e-07
4.18523e-07
3.95669e-07
3.95673e-07
4.19287e-07
4.17662e-07
3.97645e-07
3.88566e-07
3.88571e-07
3.68461e-07
3.68466e-07
4.17656e-07
3.97636e-07
3.8856e-07
3.88578e-07
3.68452e-07
3.68473e-07
3.88569e-07
3.68444e-07
3.68464e-07
4.17669e-07
3.97651e-07
3.88562e-07
3.68452e-07
3.68454e-07
3.97649e-07
3.96076e-07
3.76085e-07
3.6212e-07
3.62124e-07
3.44033e-07
3.44036e-07
3.96069e-07
3.76075e-07
3.62109e-07
3.62131e-07
3.4402e-07
3.44043e-07
3.62123e-07
3.44013e-07
3.44036e-07
3.96082e-07
3.76091e-07
3.62111e-07
3.44022e-07
3.44021e-07
3.7609e-07
3.74575e-07
3.55111e-07
3.38293e-07
3.38295e-07
3.21875e-07
3.21876e-07
3.74568e-07
3.55101e-07
3.38279e-07
3.38303e-07
3.21858e-07
3.21884e-07
3.38296e-07
3.21853e-07
3.21877e-07
3.74581e-07
3.55117e-07
3.3828e-07
3.21862e-07
3.2186e-07
3.55116e-07
3.53704e-07
3.35395e-07
3.16659e-07
3.16661e-07
3.01763e-07
3.01764e-07
3.53696e-07
3.35385e-07
3.16642e-07
3.16668e-07
3.01745e-07
3.01771e-07
3.16662e-07
3.0174e-07
3.01765e-07
3.5371e-07
3.35401e-07
3.16644e-07
3.01749e-07
3.01746e-07
3.35401e-07
3.34142e-07
3.17533e-07
2.97044e-07
2.97045e-07
2.83623e-07
2.83623e-07
3.34134e-07
3.17523e-07
2.97025e-07
2.97053e-07
2.83603e-07
2.83631e-07
2.97047e-07
2.83599e-07
2.83625e-07
3.34148e-07
3.1754e-07
2.97027e-07
2.83608e-07
2.83604e-07
3.17538e-07
3.16478e-07
3.01976e-07
2.79394e-07
2.79394e-07
2.67442e-07
2.67442e-07
3.16471e-07
3.01965e-07
2.79374e-07
2.79402e-07
2.67421e-07
2.67449e-07
2.79396e-07
2.67417e-07
2.67443e-07
3.16485e-07
3.01982e-07
2.79375e-07
2.67426e-07
2.67421e-07
3.01982e-07
3.01155e-07
2.89042e-07
2.63704e-07
2.63704e-07
2.53227e-07
2.53227e-07
3.01147e-07
2.89032e-07
2.63682e-07
2.63711e-07
2.53204e-07
2.53234e-07
2.63705e-07
2.53201e-07
2.53228e-07
3.01162e-07
2.89049e-07
2.63683e-07
2.5321e-07
2.53205e-07
2.89048e-07
2.88487e-07
2.78951e-07
2.49981e-07
2.49981e-07
2.40981e-07
2.40981e-07
2.88479e-07
2.78939e-07
2.49959e-07
2.49989e-07
2.40957e-07
2.40988e-07
2.49982e-07
2.40952e-07
2.4098e-07
2.88494e-07
2.78959e-07
2.49959e-07
2.40962e-07
2.40957e-07
2.78957e-07
2.7869e-07
2.71833e-07
2.38227e-07
2.38227e-07
2.30702e-07
2.30703e-07
2.7868e-07
2.7182e-07
2.38204e-07
2.38235e-07
2.30677e-07
2.3071e-07
2.38228e-07
2.30671e-07
2.30701e-07
2.78698e-07
2.7184e-07
2.38204e-07
2.30681e-07
2.30677e-07
2.71839e-07
2.71871e-07
2.67862e-07
2.28442e-07
2.28444e-07
2.22399e-07
2.22401e-07
2.71861e-07
2.67852e-07
2.28417e-07
2.28452e-07
2.22372e-07
2.22409e-07
2.28442e-07
2.22364e-07
2.22397e-07
2.7188e-07
2.67876e-07
2.28418e-07
2.22376e-07
2.22372e-07
2.67871e-07
2.68154e-07
2.66981e-07
2.20633e-07
2.20638e-07
2.16077e-07
2.16081e-07
2.68146e-07
2.66969e-07
2.20608e-07
2.20646e-07
2.16049e-07
2.1609e-07
2.20634e-07
2.16039e-07
2.16074e-07
2.68168e-07
2.66995e-07
2.20609e-07
2.16051e-07
2.16048e-07
2.6699e-07
2.67636e-07
2.69157e-07
2.14811e-07
2.14817e-07
2.11745e-07
2.11753e-07
2.67625e-07
2.6914e-07
2.14784e-07
2.14826e-07
2.11718e-07
2.11762e-07
2.1481e-07
2.11702e-07
2.11741e-07
2.67649e-07
2.6917e-07
2.14783e-07
2.11717e-07
2.11714e-07
2.69164e-07
2.70484e-07
2.74666e-07
2.10982e-07
2.1099e-07
2.09415e-07
2.09423e-07
2.70468e-07
2.74641e-07
2.10955e-07
2.11e-07
2.09387e-07
2.09436e-07
2.10978e-07
2.09364e-07
2.09408e-07
2.70497e-07
2.74679e-07
2.1095e-07
2.09382e-07
2.0938e-07
2.7467e-07
2.76692e-07
2.83549e-07
2.09158e-07
2.09167e-07
2.09129e-07
2.09138e-07
2.76668e-07
2.83527e-07
2.09131e-07
2.0918e-07
2.09101e-07
2.09154e-07
2.09152e-07
2.09072e-07
2.09121e-07
2.76701e-07
2.83569e-07
2.09123e-07
2.09094e-07
2.09092e-07
2.83561e-07
2.86274e-07
2.95814e-07
2.09355e-07
2.09365e-07
2.10851e-07
2.10858e-07
2.86249e-07
2.95782e-07
2.09327e-07
2.09382e-07
2.10822e-07
2.10881e-07
2.09348e-07
2.10784e-07
2.10842e-07
2.86287e-07
2.9583e-07
2.09318e-07
2.1081e-07
2.10812e-07
2.95833e-07
2.99218e-07
3.115e-07
2.11616e-07
2.11626e-07
2.14675e-07
2.14685e-07
2.99183e-07
3.11467e-07
2.11588e-07
2.11649e-07
2.14643e-07
2.1471e-07
2.11608e-07
2.146e-07
2.14663e-07
2.99232e-07
3.11524e-07
2.11578e-07
2.14629e-07
2.14632e-07
3.1152e-07
3.15592e-07
3.30561e-07
2.15961e-07
2.15975e-07
2.20594e-07
2.20614e-07
3.15561e-07
3.30517e-07
2.15932e-07
2.16e-07
2.20564e-07
2.20639e-07
2.15951e-07
2.20515e-07
2.20586e-07
3.15618e-07
3.3058e-07
2.1592e-07
2.20547e-07
2.20554e-07
3.30584e-07
3.35345e-07
3.5291e-07
2.22403e-07
2.22428e-07
2.28628e-07
2.28661e-07
3.35301e-07
3.52872e-07
2.22376e-07
2.22453e-07
2.286e-07
2.28687e-07
2.22397e-07
2.28548e-07
2.28625e-07
3.35362e-07
3.52946e-07
2.22365e-07
2.28583e-07
2.28591e-07
3.52937e-07
3.58371e-07
3.78396e-07
2.30966e-07
2.31002e-07
2.38773e-07
2.38816e-07
3.58332e-07
3.78352e-07
2.3094e-07
2.31028e-07
2.38745e-07
2.38843e-07
2.30964e-07
2.38689e-07
2.38774e-07
3.584e-07
3.78432e-07
2.30929e-07
2.38727e-07
2.38738e-07
3.78428e-07
3.84502e-07
4.06784e-07
2.41637e-07
2.41683e-07
2.51014e-07
2.51066e-07
3.84459e-07
4.06743e-07
2.4161e-07
2.41711e-07
2.50984e-07
2.51095e-07
2.41639e-07
2.50925e-07
2.51018e-07
3.84534e-07
4.06832e-07
2.41601e-07
2.50967e-07
2.50979e-07
4.06822e-07
4.13491e-07
4.37749e-07
2.54397e-07
2.5445e-07
2.6531e-07
2.65368e-07
4.13449e-07
4.37699e-07
2.54368e-07
2.5448e-07
2.65277e-07
2.65399e-07
2.54401e-07
2.65212e-07
2.65316e-07
4.13531e-07
4.37795e-07
2.54363e-07
2.65258e-07
2.65279e-07
4.37791e-07
4.44998e-07
4.70909e-07
2.69198e-07
2.69257e-07
2.81601e-07
2.81665e-07
4.44949e-07
4.70858e-07
2.69167e-07
2.6929e-07
2.81563e-07
2.81698e-07
2.69205e-07
2.81495e-07
2.8161e-07
4.45038e-07
4.70965e-07
2.69168e-07
2.81546e-07
2.81572e-07
4.70963e-07
4.78631e-07
5.05855e-07
2.85977e-07
2.86041e-07
2.99808e-07
2.99875e-07
4.78581e-07
5.05797e-07
2.85941e-07
2.86076e-07
2.99764e-07
2.99911e-07
2.85987e-07
2.99692e-07
2.99819e-07
4.78678e-07
5.05912e-07
2.85948e-07
2.99747e-07
2.99776e-07
5.05911e-07
5.13969e-07
5.42126e-07
3.04646e-07
3.04714e-07
3.19826e-07
3.19899e-07
5.13914e-07
5.42069e-07
3.04604e-07
3.04752e-07
3.19776e-07
3.19937e-07
3.04658e-07
3.19703e-07
3.19841e-07
5.14019e-07
5.42192e-07
3.04615e-07
3.19762e-07
3.19794e-07
5.42193e-07
5.50553e-07
5.79296e-07
3.25102e-07
3.25172e-07
3.41545e-07
3.41619e-07
5.50497e-07
5.79232e-07
3.25053e-07
3.25214e-07
3.41486e-07
3.41659e-07
3.25117e-07
3.4141e-07
3.41562e-07
5.50611e-07
5.79364e-07
3.25069e-07
3.41474e-07
3.41507e-07
5.79365e-07
5.8795e-07
6.1692e-07
3.47224e-07
3.47295e-07
3.64826e-07
3.64904e-07
5.87889e-07
6.16856e-07
3.47167e-07
3.4734e-07
3.64758e-07
3.64945e-07
3.47241e-07
3.64683e-07
3.64847e-07
5.8801e-07
6.16994e-07
3.47186e-07
3.64751e-07
3.64785e-07
6.16999e-07
6.25724e-07
6.54626e-07
3.70875e-07
3.70946e-07
3.8953e-07
3.89608e-07
6.25663e-07
6.54557e-07
3.70809e-07
3.70996e-07
3.89453e-07
3.89652e-07
3.70897e-07
3.89377e-07
3.89554e-07
6.25789e-07
6.54701e-07
3.70833e-07
3.8945e-07
3.89484e-07
6.54708e-07
6.63504e-07
6.92067e-07
3.9591e-07
3.95978e-07
4.15499e-07
4.15574e-07
6.63439e-07
6.91995e-07
3.95835e-07
3.96033e-07
4.15411e-07
4.15622e-07
3.95934e-07
4.15337e-07
4.15526e-07
6.6357e-07
6.92146e-07
3.95863e-07
4.15413e-07
4.15447e-07
6.92154e-07
7.00954e-07
7.28965e-07
4.22169e-07
4.22242e-07
4.4257e-07
4.42642e-07
7.00887e-07
7.28886e-07
4.22084e-07
4.22294e-07
4.42472e-07
4.42694e-07
4.22198e-07
4.42399e-07
4.42601e-07
7.01023e-07
7.29044e-07
4.22117e-07
4.4248e-07
4.42512e-07
7.29055e-07
7.37807e-07
7.65101e-07
4.49491e-07
4.49563e-07
4.70573e-07
4.70646e-07
7.37733e-07
7.65019e-07
4.49396e-07
4.49616e-07
4.70466e-07
4.70698e-07
4.49522e-07
4.70397e-07
4.70609e-07
7.37877e-07
7.6518e-07
4.49432e-07
4.70481e-07
4.70511e-07
7.65193e-07
7.73847e-07
8.00299e-07
4.77699e-07
4.77771e-07
4.99333e-07
4.99402e-07
7.73771e-07
8.00215e-07
4.77594e-07
4.77825e-07
4.99216e-07
4.99457e-07
4.77735e-07
4.9915e-07
4.99371e-07
7.73917e-07
8.0038e-07
4.77636e-07
4.99237e-07
4.99265e-07
8.00391e-07
8.08915e-07
8.34436e-07
5.06621e-07
5.06689e-07
5.28673e-07
5.28741e-07
8.08836e-07
8.3435e-07
5.06508e-07
5.06745e-07
5.28548e-07
5.28798e-07
5.06661e-07
5.28487e-07
5.28718e-07
8.08985e-07
8.34519e-07
5.06553e-07
5.28578e-07
5.28604e-07
8.34534e-07
8.42865e-07
8.67452e-07
5.36077e-07
5.36146e-07
5.58417e-07
5.5848e-07
8.42786e-07
8.67364e-07
5.35957e-07
5.36204e-07
5.58286e-07
5.58538e-07
5.36124e-07
5.58226e-07
5.58466e-07
8.4294e-07
8.67529e-07
5.36008e-07
5.58321e-07
5.58344e-07
8.67546e-07
8.75677e-07
8.99298e-07
5.65897e-07
5.65959e-07
5.8839e-07
5.88452e-07
8.75592e-07
8.99214e-07
5.65771e-07
5.66019e-07
5.88254e-07
5.88512e-07
5.65948e-07
5.882e-07
5.88447e-07
8.75744e-07
8.99378e-07
5.65825e-07
5.88299e-07
5.88318e-07
8.99397e-07
9.07299e-07
9.29946e-07
5.95898e-07
5.95959e-07
6.18416e-07
6.18473e-07
9.07219e-07
9.29858e-07
5.95767e-07
5.96021e-07
6.18277e-07
6.18534e-07
5.95955e-07
6.18224e-07
6.18477e-07
9.0737e-07
9.3002e-07
5.95827e-07
6.18326e-07
6.18343e-07
9.3004e-07
9.37717e-07
9.59401e-07
6.25917e-07
6.25972e-07
6.48347e-07
6.48403e-07
9.37633e-07
9.59313e-07
6.25784e-07
6.26034e-07
6.48207e-07
6.48466e-07
6.25979e-07
6.48159e-07
6.48417e-07
9.37782e-07
9.59473e-07
6.25847e-07
6.48265e-07
6.48278e-07
9.59497e-07
9.66933e-07
9.87649e-07
6.55797e-07
6.55852e-07
6.78013e-07
6.78068e-07
9.66851e-07
9.87561e-07
6.55663e-07
6.55914e-07
6.77874e-07
6.78128e-07
6.55865e-07
6.77827e-07
6.78089e-07
9.66997e-07
9.87712e-07
6.55731e-07
6.77936e-07
6.77951e-07
9.87739e-07
9.94935e-07
1.01471e-06
6.85372e-07
6.85424e-07
7.07281e-07
7.07334e-07
9.94855e-07
1.01463e-06
6.85245e-07
6.85489e-07
7.07148e-07
7.07398e-07
6.85451e-07
7.07102e-07
7.07365e-07
9.94994e-07
1.01477e-06
6.85314e-07
7.07214e-07
7.07227e-07
1.0148e-06
1.02175e-06
1.04062e-06
7.14524e-07
7.14575e-07
7.36042e-07
7.36087e-07
1.02168e-06
1.04053e-06
7.14398e-07
7.1464e-07
7.35913e-07
7.36152e-07
7.14608e-07
7.35862e-07
7.36128e-07
1.02181e-06
1.04067e-06
7.1447e-07
7.35978e-07
7.3599e-07
1.0407e-06
1.04743e-06
1.06539e-06
7.43137e-07
7.43181e-07
7.64157e-07
7.64204e-07
1.04734e-06
1.0653e-06
7.43015e-07
7.43246e-07
7.64031e-07
7.64268e-07
7.43225e-07
7.63987e-07
7.64252e-07
1.04747e-06
1.06544e-06
7.43088e-07
7.64104e-07
7.64115e-07
1.06548e-06
1.07196e-06
1.08907e-06
7.71076e-07
7.71122e-07
7.91546e-07
7.91588e-07
1.07188e-06
1.08898e-06
7.70957e-07
7.71188e-07
7.91422e-07
7.91651e-07
7.71171e-07
7.91378e-07
7.91639e-07
1.07201e-06
1.08912e-06
7.71035e-07
7.91495e-07
7.91504e-07
1.08915e-06
1.09542e-06
1.11169e-06
7.98269e-07
7.98308e-07
8.18116e-07
8.18155e-07
1.09533e-06
1.1116e-06
7.98151e-07
7.98372e-07
8.17993e-07
8.18216e-07
7.98363e-07
8.17953e-07
8.18213e-07
1.09546e-06
1.11173e-06
7.98228e-07
8.18069e-07
8.1808e-07
1.11177e-06
1.11781e-06
1.13328e-06
8.24624e-07
8.24663e-07
8.43803e-07
8.43838e-07
1.11772e-06
1.13319e-06
8.24508e-07
8.24725e-07
8.43682e-07
8.43898e-07
8.24722e-07
8.43644e-07
8.43899e-07
1.11785e-06
1.13331e-06
8.2459e-07
8.4376e-07
8.43769e-07
1.13335e-06
1.13918e-06
1.15385e-06
8.50079e-07
8.50112e-07
8.68548e-07
8.68581e-07
1.1391e-06
1.15377e-06
8.49964e-07
8.50172e-07
8.68426e-07
8.68638e-07
8.50175e-07
8.68394e-07
8.68644e-07
1.13922e-06
1.15389e-06
8.50046e-07
8.68507e-07
8.68517e-07
1.15393e-06
5.35663e-07
5.35601e-07
5.35655e-07
5.35655e-07
5.34573e-07
5.35516e-07
5.33634e-07
5.35654e-07
5.34573e-07
5.35517e-07
5.35654e-07
5.33634e-07
5.35256e-07
5.35986e-07
5.35987e-07
1.10713e-06
3.88086e-06
9.33891e-07
4.6061e-06
1.26081e-05
1.66011e-05
1.10725e-06
3.88107e-06
9.33924e-07
4.60652e-06
4.95567e-07
4.95567e-07
4.95567e-07
4.57231e-07
4.57231e-07
4.57232e-07
4.57232e-07
5.43144e-07
1.22026e-06
4.95565e-07
4.85522e-07
5.25341e-07
1.20946e-06
4.82301e-07
1.26097e-05
1.66037e-05
5.43162e-07
4.95565e-07
1.22025e-06
4.85523e-07
5.2532e-07
4.82302e-07
1.20945e-06
2.52172e-06
2.52242e-06
4.8419e-07
2.37248e-06
2.37287e-06
1.4308e-06
5.5934e-06
1.32967e-06
6.1363e-06
2.12845e-05
2.31104e-05
1.4312e-06
5.594e-06
1.32973e-06
6.13694e-06
4.45572e-07
4.45573e-07
4.45573e-07
4.13542e-07
4.13542e-07
4.13543e-07
4.13543e-07
5.87084e-07
1.19483e-06
4.46434e-07
4.44291e-07
5.73801e-07
1.20431e-06
4.3569e-07
2.12866e-05
2.31141e-05
5.87102e-07
4.46435e-07
1.19484e-06
4.44294e-07
5.73811e-07
4.35692e-07
1.2044e-06
2.31171e-06
2.31222e-06
4.53488e-07
2.35332e-06
2.35378e-06
1.66327e-06
6.91813e-06
1.59584e-06
7.31962e-06
2.46405e-05
2.49369e-05
1.66337e-06
6.91897e-06
1.59576e-06
7.32072e-06
4.03752e-07
4.03753e-07
4.03753e-07
3.76689e-07
3.76689e-07
3.76691e-07
3.7669e-07
6.15569e-07
1.24281e-06
4.06546e-07
4.10617e-07
6.0838e-07
1.26558e-06
3.97729e-07
2.46436e-05
2.49405e-05
6.15585e-07
4.06547e-07
1.24291e-06
4.10622e-07
6.08396e-07
3.97732e-07
1.26574e-06
2.47396e-06
2.47444e-06
4.30179e-07
2.53268e-06
2.53316e-06
1.81233e-06
7.84732e-06
1.77234e-06
8.09985e-06
2.47367e-05
2.44301e-05
1.81247e-06
7.84804e-06
1.77234e-06
8.10048e-06
3.68362e-07
3.68365e-07
3.68364e-07
3.45192e-07
3.45192e-07
3.45195e-07
3.45194e-07
6.26293e-07
1.31313e-06
3.73478e-07
3.81656e-07
6.24882e-07
1.33369e-06
3.66029e-07
2.4739e-05
2.44336e-05
6.26306e-07
3.7348e-07
1.31321e-06
3.81662e-07
6.24894e-07
3.66032e-07
1.33385e-06
2.63523e-06
2.63572e-06
4.08471e-07
2.67932e-06
2.67982e-06
1.89282e-06
8.39529e-06
1.87319e-06
8.53012e-06
2.36928e-05
2.32645e-05
1.89299e-06
8.39762e-06
1.87321e-06
8.53208e-06
3.38014e-07
3.38017e-07
3.38016e-07
3.17912e-07
3.17911e-07
3.17915e-07
3.17914e-07
6.22109e-07
1.37211e-06
3.45239e-07
3.55922e-07
6.25445e-07
1.3871e-06
3.38764e-07
2.36944e-05
2.32675e-05
6.22123e-07
3.45241e-07
1.37219e-06
3.5593e-07
6.25457e-07
3.38768e-07
1.38726e-06
2.7635e-06
2.76403e-06
3.86837e-07
2.80528e-06
2.80583e-06
1.92987e-06
8.66179e-06
1.9218e-06
8.7186e-06
2.25022e-05
2.21192e-05
1.93005e-06
8.6643e-06
1.92183e-06
8.72098e-06
3.11645e-07
3.11649e-07
3.11648e-07
2.94001e-07
2.94e-07
2.94004e-07
2.94002e-07
6.08887e-07
1.41603e-06
3.20492e-07
3.32668e-07
6.15378e-07
1.42751e-06
3.14745e-07
2.25034e-05
2.21217e-05
6.08901e-07
3.20493e-07
1.4161e-06
3.32677e-07
6.15391e-07
3.14749e-07
1.42768e-06
2.89514e-06
2.89573e-06
3.65488e-07
2.94358e-06
2.94421e-06
1.94789e-06
8.76007e-06
1.94364e-06
8.77072e-06
2.1478e-05
2.11772e-05
1.94807e-06
8.76063e-06
1.94367e-06
8.77136e-06
2.88472e-07
2.88476e-07
2.88475e-07
2.72839e-07
2.72838e-07
2.72842e-07
2.72841e-07
5.91864e-07
1.45273e-06
2.98409e-07
3.11548e-07
5.99369e-07
1.46399e-06
2.93242e-07
2.14792e-05
2.11796e-05
5.91878e-07
2.98411e-07
1.4528e-06
3.11557e-07
5.99382e-07
2.93246e-07
1.46416e-06
3.0489e-06
3.04959e-06
3.45061e-07
3.10624e-06
3.10702e-06
1.96559e-06
8.76953e-06
1.95959e-06
8.76364e-06
2.06745e-05
2.0452e-05
1.96576e-06
8.76919e-06
1.95963e-06
8.76483e-06
2.67922e-07
2.67926e-07
2.67925e-07
2.53976e-07
2.53976e-07
2.5398e-07
2.53978e-07
5.75448e-07
1.49166e-06
2.785e-07
2.92425e-07
5.82273e-07
1.50546e-06
2.73825e-07
2.06763e-05
2.04542e-05
5.75465e-07
2.78501e-07
1.49173e-06
2.92434e-07
5.82287e-07
2.73829e-07
1.50563e-06
3.22595e-06
3.22676e-06
3.26206e-07
3.29167e-06
3.29262e-06
1.99555e-06
8.75194e-06
1.98437e-06
8.74296e-06
2.00723e-05
1.99099e-05
1.9957e-06
8.74968e-06
1.98439e-06
8.74478e-06
2.49579e-07
2.49583e-07
2.49581e-07
2.37082e-07
2.37081e-07
2.37086e-07
2.37084e-07
5.629e-07
1.5398e-06
2.60474e-07
2.75263e-07
5.67829e-07
1.55769e-06
2.56239e-07
2.00744e-05
1.99117e-05
5.62917e-07
2.60475e-07
1.53987e-06
2.75272e-07
5.67845e-07
2.56243e-07
1.55785e-06
3.42144e-06
3.42239e-06
3.0945e-07
3.49257e-06
3.49372e-06
2.04523e-06
8.73589e-06
2.02679e-06
8.73068e-06
1.96322e-05
1.95156e-05
2.04537e-06
8.73452e-06
2.02681e-06
8.73343e-06
2.33136e-07
2.3314e-07
2.33138e-07
2.21911e-07
2.2191e-07
2.21915e-07
2.21913e-07
5.565e-07
1.60099e-06
2.44157e-07
2.60063e-07
5.58642e-07
1.6236e-06
2.4033e-07
1.96344e-05
1.95174e-05
5.56519e-07
2.44158e-07
1.60104e-06
2.60072e-07
5.5866e-07
2.40334e-07
1.62378e-06
3.6274e-06
3.62851e-06
2.9517e-07
3.70103e-06
3.7024e-06
2.11899e-06
8.73094e-06
2.092e-06
8.73527e-06
1.93161e-05
1.9237e-05
2.11915e-06
8.73187e-06
2.09199e-06
8.73462e-06
2.18365e-07
2.18369e-07
2.18367e-07
2.08276e-07
2.08275e-07
2.08279e-07
2.08277e-07
5.57605e-07
1.67643e-06
2.29438e-07
2.4683e-07
5.56738e-07
1.70374e-06
2.25997e-07
1.93191e-05
1.92372e-05
5.57624e-07
2.29439e-07
1.67652e-06
2.4684e-07
5.56755e-07
2.26001e-07
1.7039e-06
3.83566e-06
3.83693e-06
2.83639e-07
3.90901e-06
3.91059e-06
2.21871e-06
8.74057e-06
2.18281e-06
8.74839e-06
1.9097e-05
1.90399e-05
2.2189e-06
8.7418e-06
2.18286e-06
8.74962e-06
2.05089e-07
2.05093e-07
2.05092e-07
1.9603e-07
1.96029e-07
1.96033e-07
1.96031e-07
5.66946e-07
1.76536e-06
2.16237e-07
2.35565e-07
5.63101e-07
1.79678e-06
2.13166e-07
1.90968e-05
1.90429e-05
5.66971e-07
2.16238e-07
1.76546e-06
2.35575e-07
5.63125e-07
2.1317e-07
1.79694e-06
4.03847e-06
4.03989e-06
2.75011e-07
4.10937e-06
4.11112e-06
2.34379e-06
8.75657e-06
2.2994e-06
8.76545e-06
1.89406e-05
1.89034e-05
2.34439e-06
8.76035e-06
2.29928e-06
8.76825e-06
1.93171e-07
1.93175e-07
1.93173e-07
1.85053e-07
1.85052e-07
1.85057e-07
1.85055e-07
5.85869e-07
1.86571e-06
2.04494e-07
2.26271e-07
5.78753e-07
1.9003e-06
2.01779e-07
1.89433e-05
1.89038e-05
5.85899e-07
2.04495e-07
1.86579e-06
2.26282e-07
5.78782e-07
2.01783e-07
1.90049e-06
4.22977e-06
4.23133e-06
2.69472e-07
4.29518e-06
4.29706e-06
2.49196e-06
8.77785e-06
2.43872e-06
8.78822e-06
1.88335e-05
1.88033e-05
2.49252e-06
8.78065e-06
2.43846e-06
8.79029e-06
1.82497e-07
1.82501e-07
1.82499e-07
1.75253e-07
1.75252e-07
1.75256e-07
1.75254e-07
6.149e-07
1.97458e-06
1.94157e-07
2.18954e-07
6.04379e-07
2.01135e-06
1.91785e-07
1.88343e-05
1.88071e-05
6.14935e-07
1.94158e-07
1.97469e-06
2.18965e-07
6.04414e-07
1.9179e-07
2.01155e-06
4.40375e-06
4.40543e-06
2.67054e-07
4.46271e-06
4.4647e-06
2.65682e-06
8.79977e-06
2.59693e-06
8.80866e-06
1.87465e-05
1.87306e-05
2.65737e-06
8.80158e-06
2.59666e-06
8.81029e-06
1.72978e-07
1.72983e-07
1.7298e-07
1.66551e-07
1.6655e-07
1.66554e-07
1.66552e-07
6.54321e-07
2.08871e-06
1.85183e-07
2.13622e-07
6.40333e-07
2.12653e-06
1.83145e-07
1.87482e-05
1.87361e-05
6.54358e-07
1.85183e-07
2.08881e-06
2.13635e-07
6.4037e-07
1.83149e-07
2.12673e-06
4.55809e-06
4.55984e-06
2.67664e-07
4.60933e-06
4.61138e-06
2.83133e-06
8.81933e-06
2.76771e-06
8.82715e-06
1.86912e-05
1.86799e-05
2.83189e-06
8.82109e-06
2.76747e-06
8.82906e-06
1.6454e-07
1.64545e-07
1.64542e-07
1.58882e-07
1.58881e-07
1.58886e-07
1.58883e-07
7.0408e-07
2.20467e-06
1.77535e-07
2.10281e-07
6.86696e-07
2.24235e-06
1.75823e-07
1.86977e-05
1.86815e-05
7.04119e-07
1.77535e-07
2.20479e-06
2.10298e-07
6.86735e-07
1.75827e-07
2.24257e-06
4.69118e-06
4.69299e-06
2.71498e-07
4.73465e-06
4.73672e-06
3.00734e-06
8.83612e-06
2.94322e-06
8.84345e-06
1.86445e-05
1.86383e-05
3.00791e-06
8.83798e-06
2.943e-06
8.84539e-06
1.5712e-07
1.57126e-07
1.57123e-07
1.52192e-07
1.52191e-07
1.52197e-07
1.52193e-07
7.63688e-07
2.31919e-06
1.71187e-07
2.08952e-07
7.43127e-07
2.35579e-06
1.69795e-07
1.86511e-05
1.86333e-05
7.63728e-07
1.71186e-07
2.31933e-06
2.08972e-07
7.43169e-07
1.69799e-07
2.356e-06
4.80358e-06
4.80544e-06
2.78692e-07
4.83988e-06
4.84196e-06
3.17671e-06
8.85315e-06
3.11525e-06
8.85806e-06
1.86089e-05
1.85901e-05
3.17728e-06
8.85509e-06
3.11505e-06
8.85997e-06
1.50667e-07
1.50673e-07
1.50669e-07
1.46434e-07
1.46432e-07
1.46439e-07
1.46435e-07
8.32138e-07
2.42958e-06
1.6612e-07
2.09659e-07
8.08798e-07
2.46427e-06
1.65045e-07
1.86069e-05
1.85918e-05
8.32179e-07
1.6612e-07
2.42973e-06
2.09682e-07
8.08841e-07
1.6505e-07
2.46447e-06
4.89711e-06
4.89898e-06
2.89264e-07
4.92703e-06
4.92912e-06
3.33255e-06
8.8669e-06
3.27632e-06
8.87586e-06
1.85649e-05
1.85612e-05
3.33311e-06
8.86887e-06
3.27614e-06
8.87783e-06
1.45134e-07
1.45141e-07
1.45137e-07
1.41572e-07
1.41569e-07
1.41576e-07
1.41572e-07
9.07928e-07
2.53364e-06
1.62328e-07
2.12431e-07
8.82361e-07
2.56585e-06
1.61567e-07
1.85641e-05
1.85605e-05
9.07971e-07
1.62328e-07
2.53378e-06
2.12459e-07
8.82406e-07
1.61572e-07
2.56605e-06
4.97436e-06
4.97623e-06
3.03245e-07
4.99835e-06
5.00044e-06
3.47004e-06
8.88162e-06
3.42078e-06
8.88537e-06
1.85207e-05
1.85177e-05
3.47061e-06
8.88353e-06
3.42061e-06
8.88733e-06
1.40489e-07
1.40497e-07
1.40492e-07
1.37573e-07
1.3757e-07
1.37579e-07
1.37574e-07
9.89106e-07
2.62991e-06
1.59809e-07
2.17293e-07
9.62005e-07
2.6593e-06
1.59362e-07
1.85267e-05
1.85158e-05
9.8915e-07
1.5981e-07
2.63004e-06
2.17324e-07
9.6205e-07
1.59366e-07
2.65951e-06
5.03762e-06
5.03948e-06
3.2063e-07
5.0567e-06
5.05878e-06
3.58668e-06
8.8971e-06
3.5453e-06
8.90182e-06
1.84947e-05
1.8491e-05
3.58726e-06
8.89863e-06
3.54512e-06
8.90357e-06
1.367e-07
1.36709e-07
1.36704e-07
1.34413e-07
1.3441e-07
1.3442e-07
1.34414e-07
1.07343e-06
2.7175e-06
1.58573e-07
2.24268e-07
1.04556e-06
2.74397e-06
1.5844e-07
1.84988e-05
1.84982e-05
1.07347e-06
1.58575e-07
2.71758e-06
2.24302e-07
1.0456e-06
1.58444e-07
2.74419e-06
5.08924e-06
5.09111e-06
3.41356e-07
5.10449e-06
5.10655e-06
3.68232e-06
8.90744e-06
3.64887e-06
8.91291e-06
1.84649e-05
1.84617e-05
3.68289e-06
8.90923e-06
3.64869e-06
8.91458e-06
1.33745e-07
1.33755e-07
1.33749e-07
1.32071e-07
1.32068e-07
1.32078e-07
1.32072e-07
1.15861e-06
2.79621e-06
1.58617e-07
2.33356e-07
1.13072e-06
2.81981e-06
1.58832e-07
1.84692e-05
1.84661e-05
1.15865e-06
1.58615e-07
2.7963e-06
2.33392e-07
1.13076e-06
1.58841e-07
2.82005e-06
5.13149e-06
5.13336e-06
3.65303e-07
5.14371e-06
5.14575e-06
3.75853e-06
8.91845e-06
3.73233e-06
8.92562e-06
1.84382e-05
1.84357e-05
3.75909e-06
8.92029e-06
3.73216e-06
8.92758e-06
1.31602e-07
1.31613e-07
1.31606e-07
1.3053e-07
1.30527e-07
1.30539e-07
1.30532e-07
1.24245e-06
2.86625e-06
1.59987e-07
2.44547e-07
1.21525e-06
2.88714e-06
1.60534e-07
1.8441e-05
1.84333e-05
1.24249e-06
1.59985e-07
2.86635e-06
2.44588e-07
1.21529e-06
1.60545e-07
2.88737e-06
5.16615e-06
5.16806e-06
3.9228e-07
5.17612e-06
5.17808e-06
3.81788e-06
8.92902e-06
3.79793e-06
8.93249e-06
1.84127e-05
1.84032e-05
3.81844e-06
8.93063e-06
3.79777e-06
8.93453e-06
1.30255e-07
1.30267e-07
1.3026e-07
1.29778e-07
1.29775e-07
1.29788e-07
1.29781e-07
1.32312e-06
2.92823e-06
1.62691e-07
2.57815e-07
1.29716e-06
2.94659e-06
1.63576e-07
1.84168e-05
1.8404e-05
1.32315e-06
1.62689e-07
2.92832e-06
2.57858e-07
1.29719e-06
1.63588e-07
2.9468e-06
5.19475e-06
5.19668e-06
4.22007e-07
5.20299e-06
5.20496e-06
3.86336e-06
8.93791e-06
3.84848e-06
8.94199e-06
1.83911e-05
1.83813e-05
3.86391e-06
8.93973e-06
3.84833e-06
8.94385e-06
1.29693e-07
1.29706e-07
1.29699e-07
1.29793e-07
1.2979e-07
1.29805e-07
1.29797e-07
1.39919e-06
2.98284e-06
1.6675e-07
2.73109e-07
1.37488e-06
2.99896e-06
1.67979e-07
1.83913e-05
1.83824e-05
1.39922e-06
1.66748e-07
2.98292e-06
2.73157e-07
1.37491e-06
1.67993e-07
2.99915e-06
5.21859e-06
5.22053e-06
4.54128e-07
5.22549e-06
5.22746e-06
3.89794e-06
8.94516e-06
3.88701e-06
8.94949e-06
1.83674e-05
1.83566e-05
3.89848e-06
8.94701e-06
3.88686e-06
8.95144e-06
1.29918e-07
1.29933e-07
1.29925e-07
1.30589e-07
1.30587e-07
1.30603e-07
1.30595e-07
1.46971e-06
3.03091e-06
1.72181e-07
2.90361e-07
1.44731e-06
3.04508e-06
1.73754e-07
1.83695e-05
1.8359e-05
1.46973e-06
1.7218e-07
3.03099e-06
2.90413e-07
1.44734e-06
1.73769e-07
3.04526e-06
5.23865e-06
5.24058e-06
4.88244e-07
5.24448e-06
5.24644e-06
3.92425e-06
8.95121e-06
3.91626e-06
8.95566e-06
1.83478e-05
1.83413e-05
3.92475e-06
8.95298e-06
3.91613e-06
8.95754e-06
1.30907e-07
1.30924e-07
1.30915e-07
1.32154e-07
1.32151e-07
1.32169e-07
1.3216e-07
1.53417e-06
3.07331e-06
1.78991e-07
3.09478e-07
1.5138e-06
3.08581e-06
1.8091e-07
1.83484e-05
1.83433e-05
1.53419e-06
1.78991e-07
3.07338e-06
3.09535e-07
1.51383e-06
1.80927e-07
3.08598e-06
5.25572e-06
5.25765e-06
5.23911e-07
5.2607e-06
5.26265e-06
3.94451e-06
8.95812e-06
3.9385e-06
8.96039e-06
1.83283e-05
1.83223e-05
3.94487e-06
8.95999e-06
3.93846e-06
8.96222e-06
1.32663e-07
1.32681e-07
1.32673e-07
1.34485e-07
1.34482e-07
1.34502e-07
1.34493e-07
1.59248e-06
3.11085e-06
1.87183e-07
3.30353e-07
1.57414e-06
3.12193e-06
1.89446e-07
1.83281e-05
1.83235e-05
1.5925e-06
1.87183e-07
3.11091e-06
3.30414e-07
1.57416e-06
1.89466e-07
3.12208e-06
5.27047e-06
5.27239e-06
5.60698e-07
5.27477e-06
5.27672e-06
3.96024e-06
8.96481e-06
3.9556e-06
8.96621e-06
1.83126e-05
1.83101e-05
3.9605e-06
8.96671e-06
3.95569e-06
8.96815e-06
1.35185e-07
1.35206e-07
1.35196e-07
1.37584e-07
1.37581e-07
1.37602e-07
1.37593e-07
1.64486e-06
3.14428e-06
1.96749e-07
3.5286e-07
1.62844e-06
3.15415e-06
1.99352e-07
1.83164e-05
1.83122e-05
1.64488e-06
1.9675e-07
3.14433e-06
3.52926e-07
1.62846e-06
1.99375e-07
3.1543e-06
5.28339e-06
5.28531e-06
5.98147e-07
5.28718e-06
5.28912e-06
3.97269e-06
8.97032e-06
3.96904e-06
8.97255e-06
1.83001e-05
1.82972e-05
3.97293e-06
8.97213e-06
3.96918e-06
8.97436e-06
1.38476e-07
1.38498e-07
1.38489e-07
1.41452e-07
1.41449e-07
1.41473e-07
1.41464e-07
1.69177e-06
3.17425e-06
2.07669e-07
3.76862e-07
1.67707e-06
3.18312e-06
2.10608e-07
1.83011e-05
1.82987e-05
1.69179e-06
2.07672e-07
3.1743e-06
3.76932e-07
1.6771e-06
2.10633e-07
3.18326e-06
5.29499e-06
5.2969e-06
6.35868e-07
5.2984e-06
5.30033e-06
3.98279e-06
8.97525e-06
3.97984e-06
8.97863e-06
1.82887e-05
1.82876e-05
3.98303e-06
8.97712e-06
3.97999e-06
8.98053e-06
1.42537e-07
1.42562e-07
1.42553e-07
1.46096e-07
1.46092e-07
1.46119e-07
1.46109e-07
1.73386e-06
3.20134e-06
2.19917e-07
4.02209e-07
1.72049e-06
3.20937e-06
2.23182e-07
1.8291e-05
1.82894e-05
1.73388e-06
2.19922e-07
3.20139e-06
4.02283e-07
1.72052e-06
2.23211e-07
3.20951e-06
5.30554e-06
5.30744e-06
6.73482e-07
5.3087e-06
5.31063e-06
3.99122e-06
8.98137e-06
3.98876e-06
8.98438e-06
1.828e-05
1.82806e-05
3.99145e-06
8.9832e-06
3.98891e-06
8.98625e-06
1.47374e-07
1.47402e-07
1.47392e-07
1.51518e-07
1.51514e-07
1.51544e-07
1.51534e-07
1.77162e-06
3.22604e-06
2.33455e-07
4.2874e-07
1.75938e-06
3.23336e-06
2.37035e-07
1.82817e-05
1.82826e-05
1.77164e-06
2.33461e-07
3.22608e-06
4.28819e-07
1.75941e-06
2.37067e-07
3.23349e-06
5.31544e-06
5.31734e-06
7.10687e-07
5.3184e-06
5.32032e-06
3.99851e-06
8.98804e-06
3.99637e-06
8.99067e-06
1.82755e-05
1.82753e-05
3.99867e-06
8.98989e-06
3.99649e-06
8.99259e-06
1.52993e-07
1.53023e-07
1.53013e-07
1.57726e-07
1.57723e-07
1.57754e-07
1.57744e-07
1.80566e-06
3.24876e-06
2.48237e-07
4.56292e-07
1.79438e-06
3.25553e-06
2.52121e-07
1.82771e-05
1.82773e-05