/*--------------------------------*- C++ -*----------------------------------*\
| =========                 |                                                 |
| \\      /  F ield         | OpenFOAM: The Open Source CFD Toolbox           |
|  \\    /   O peration     | Version:  v2012                                 |
|   \\  /    A nd           | Website:  www.openfoam.com                      |
|    \\/     M anipulation  |                                                 |
\*---------------------------------------------------------------------------*/
FoamFile
{
    version     2.0;
    format      ascii;
    class       volScalarField;
    location    "875";
    object      k;
}
// * * * * * * * * * * * * * * * * * * * * * * * * * * * * * * * * * * * * * //

dimensions      [0 2 -2 0 0 0 0];


internalField   nonuniform List<scalar> 
85864
(
3.58932e-05
3.58912e-05
3.58912e-05
3.59957e-05
3.39296e-05
3.3889e-05
3.3889e-05
3.39622e-05
3.21578e-05
3.20081e-05
3.20081e-05
3.19522e-05
3.05346e-05
3.02293e-05
3.02292e-05
2.99884e-05
2.90329e-05
2.8554e-05
2.85539e-05
2.81226e-05
2.76353e-05
2.69872e-05
2.69871e-05
2.63907e-05
2.63308e-05
2.5531e-05
2.55309e-05
2.48074e-05
2.51112e-05
2.4185e-05
2.41848e-05
2.33782e-05
2.39709e-05
2.29506e-05
2.29504e-05
2.21048e-05
2.29058e-05
2.18269e-05
2.18267e-05
2.09861e-05
2.1912e-05
2.08115e-05
2.08113e-05
2.00136e-05
2.09865e-05
1.99016e-05
1.99014e-05
1.91837e-05
2.01241e-05
1.90948e-05
1.90947e-05
1.84913e-05
1.9324e-05
1.83902e-05
1.83904e-05
1.79516e-05
1.85853e-05
1.77849e-05
1.77838e-05
1.75488e-05
1.79054e-05
1.72898e-05
1.72873e-05
1.73253e-05
1.72811e-05
1.68612e-05
1.68596e-05
1.70814e-05
1.67118e-05
1.65306e-05
1.65278e-05
1.70587e-05
1.61935e-05
1.62857e-05
1.62927e-05
1.70613e-05
1.57246e-05
1.61407e-05
1.6158e-05
1.73308e-05
1.53082e-05
1.61366e-05
1.61106e-05
1.76639e-05
1.49373e-05
1.6152e-05
1.61644e-05
1.80657e-05
1.46145e-05
1.62778e-05
1.62639e-05
1.87061e-05
1.43374e-05
1.65134e-05
1.6513e-05
1.95386e-05
1.41062e-05
1.6819e-05
1.68344e-05
2.02047e-05
1.39236e-05
1.72382e-05
1.72515e-05
2.10385e-05
1.37835e-05
1.77087e-05
1.77026e-05
2.20233e-05
1.36897e-05
1.82808e-05
1.82687e-05
2.30124e-05
1.36419e-05
1.88903e-05
1.88999e-05
2.40513e-05
1.36385e-05
1.96005e-05
1.96043e-05
2.51145e-05
1.36802e-05
2.03519e-05
2.03539e-05
2.61959e-05
1.37698e-05
2.1162e-05
2.11639e-05
2.72849e-05
1.39048e-05
2.20331e-05
2.20345e-05
2.83559e-05
1.40854e-05
2.29414e-05
2.29434e-05
2.94291e-05
1.43138e-05
2.38819e-05
2.38841e-05
3.04762e-05
1.45875e-05
2.48563e-05
2.48589e-05
3.15308e-05
1.4909e-05
2.58548e-05
2.58569e-05
3.25311e-05
1.52756e-05
2.68714e-05
2.68735e-05
3.35366e-05
1.56887e-05
2.78985e-05
2.79021e-05
3.45039e-05
1.61462e-05
2.89319e-05
2.89337e-05
3.54473e-05
1.66469e-05
2.99691e-05
2.99717e-05
3.63772e-05
1.71901e-05
3.09997e-05
3.10023e-05
3.72653e-05
1.77727e-05
3.20221e-05
3.20253e-05
3.81447e-05
1.83944e-05
3.30382e-05
3.30406e-05
3.89887e-05
1.90504e-05
3.40323e-05
3.40353e-05
3.98126e-05
1.97382e-05
3.50089e-05
3.50117e-05
4.05999e-05
2.04554e-05
3.59684e-05
3.59707e-05
4.13908e-05
3.63068e-05
3.6291e-05
3.6291e-05
3.63068e-05
3.6291e-05
3.6291e-05
3.6423e-05
3.6423e-05
3.6423e-05
3.6423e-05
3.6291e-05
3.6291e-05
3.63068e-05
3.6291e-05
3.6291e-05
3.63068e-05
3.59957e-05
3.42687e-05
3.58912e-05
3.58912e-05
3.43767e-05
3.43766e-05
3.59957e-05
3.42687e-05
3.58911e-05
3.58912e-05
3.43767e-05
3.43766e-05
3.58912e-05
3.43767e-05
3.43767e-05
3.59957e-05
3.42687e-05
3.58912e-05
3.43767e-05
3.43767e-05
3.42687e-05
3.39623e-05
3.22635e-05
3.38889e-05
3.38889e-05
3.24684e-05
3.24683e-05
3.39623e-05
3.22635e-05
3.38889e-05
3.38889e-05
3.24684e-05
3.24683e-05
3.38889e-05
3.24685e-05
3.24684e-05
3.39623e-05
3.22634e-05
3.38889e-05
3.24685e-05
3.24684e-05
3.22634e-05
3.19522e-05
3.02993e-05
3.20079e-05
3.20078e-05
3.06643e-05
3.06642e-05
3.19522e-05
3.02994e-05
3.2008e-05
3.20078e-05
3.06644e-05
3.06641e-05
3.20079e-05
3.06646e-05
3.06643e-05
3.19522e-05
3.02992e-05
3.2008e-05
3.06645e-05
3.06644e-05
3.02992e-05
2.99885e-05
2.84253e-05
3.0229e-05
3.02288e-05
2.89624e-05
2.89622e-05
2.99886e-05
2.84254e-05
3.02291e-05
3.02287e-05
2.89626e-05
2.89621e-05
3.02289e-05
2.89628e-05
2.89623e-05
2.99885e-05
2.84251e-05
3.02291e-05
2.89627e-05
2.89626e-05
2.84252e-05
2.81227e-05
2.6674e-05
2.85536e-05
2.85534e-05
2.7368e-05
2.73678e-05
2.81228e-05
2.66742e-05
2.85538e-05
2.85533e-05
2.73683e-05
2.73676e-05
2.85535e-05
2.73686e-05
2.73679e-05
2.81226e-05
2.66739e-05
2.85538e-05
2.73684e-05
2.73683e-05
2.66738e-05
2.63908e-05
2.50663e-05
2.69866e-05
2.69864e-05
2.58841e-05
2.58838e-05
2.6391e-05
2.50665e-05
2.69869e-05
2.69862e-05
2.58845e-05
2.58836e-05
2.69865e-05
2.58848e-05
2.5884e-05
2.63907e-05
2.50661e-05
2.69869e-05
2.58846e-05
2.58845e-05
2.50661e-05
2.48075e-05
2.36125e-05
2.55303e-05
2.55301e-05
2.45102e-05
2.45099e-05
2.48076e-05
2.36127e-05
2.55308e-05
2.55299e-05
2.45107e-05
2.45097e-05
2.55303e-05
2.45111e-05
2.45102e-05
2.48073e-05
2.36123e-05
2.55307e-05
2.45108e-05
2.45107e-05
2.36123e-05
2.33784e-05
2.23125e-05
2.41842e-05
2.41839e-05
2.32479e-05
2.32475e-05
2.33786e-05
2.23128e-05
2.41847e-05
2.41837e-05
2.32484e-05
2.32473e-05
2.41841e-05
2.32488e-05
2.32478e-05
2.33782e-05
2.23123e-05
2.41846e-05
2.32486e-05
2.32484e-05
2.23121e-05
2.21051e-05
2.11682e-05
2.29497e-05
2.29494e-05
2.20966e-05
2.20962e-05
2.2105e-05
2.11682e-05
2.29503e-05
2.29492e-05
2.20972e-05
2.2096e-05
2.29496e-05
2.20976e-05
2.20965e-05
2.21046e-05
2.11679e-05
2.29503e-05
2.20974e-05
2.20973e-05
2.11681e-05
2.09864e-05
2.01713e-05
2.18259e-05
2.18256e-05
2.10542e-05
2.10539e-05
2.09868e-05
2.01713e-05
2.18266e-05
2.18253e-05
2.1055e-05
2.10537e-05
2.18258e-05
2.10553e-05
2.10542e-05
2.09864e-05
2.01708e-05
2.18266e-05
2.10551e-05
2.1055e-05
2.01709e-05
2.00139e-05
1.9316e-05
2.08104e-05
2.08101e-05
2.01182e-05
2.01179e-05
2.00143e-05
1.93158e-05
2.08111e-05
2.08099e-05
2.01189e-05
2.01177e-05
2.08104e-05
2.01193e-05
2.01182e-05
2.0014e-05
1.93156e-05
2.08112e-05
2.01191e-05
2.0119e-05
1.93155e-05
1.91833e-05
1.85891e-05
1.99006e-05
1.99002e-05
1.92855e-05
1.92859e-05
1.91833e-05
1.85953e-05
1.99013e-05
1.99e-05
1.92863e-05
1.92855e-05
1.99006e-05
1.92873e-05
1.92856e-05
1.91836e-05
1.85946e-05
1.99014e-05
1.9287e-05
1.92865e-05
1.85912e-05
1.84906e-05
1.80103e-05
1.9094e-05
1.90936e-05
1.85561e-05
1.8556e-05
1.84944e-05
1.80111e-05
1.90949e-05
1.90932e-05
1.8557e-05
1.85557e-05
1.90938e-05
1.85575e-05
1.85567e-05
1.84932e-05
1.80087e-05
1.90948e-05
1.85572e-05
1.85575e-05
1.80128e-05
1.79478e-05
1.75718e-05
1.83892e-05
1.83888e-05
1.79257e-05
1.79273e-05
1.7947e-05
1.75747e-05
1.83901e-05
1.83889e-05
1.79265e-05
1.79255e-05
1.83896e-05
1.79284e-05
1.79268e-05
1.79464e-05
1.7569e-05
1.83904e-05
1.79268e-05
1.79278e-05
1.75828e-05
1.75367e-05
1.72744e-05
1.77837e-05
1.77839e-05
1.73928e-05
1.7399e-05
1.75448e-05
1.73166e-05
1.77846e-05
1.77825e-05
1.73936e-05
1.7399e-05
1.77842e-05
1.74001e-05
1.74026e-05
1.75406e-05
1.73214e-05
1.77852e-05
1.74002e-05
1.74034e-05
1.73392e-05
1.72563e-05
1.70945e-05
1.72755e-05
1.72887e-05
1.69531e-05
1.69624e-05
1.7321e-05
1.71375e-05
1.72762e-05
1.72862e-05
1.69538e-05
1.69606e-05
1.72863e-05
1.69633e-05
1.69544e-05
1.73182e-05
1.71394e-05
1.72871e-05
1.69615e-05
1.69552e-05
1.7096e-05
1.70896e-05
1.70677e-05
1.68573e-05
1.68604e-05
1.66115e-05
1.66079e-05
1.71252e-05
1.70314e-05
1.6858e-05
1.68587e-05
1.66122e-05
1.66058e-05
1.68555e-05
1.66084e-05
1.66032e-05
1.71239e-05
1.70294e-05
1.68563e-05
1.66064e-05
1.66039e-05
1.7037e-05
1.70758e-05
1.70714e-05
1.65387e-05
1.653e-05
1.63407e-05
1.63276e-05
1.70359e-05
1.69971e-05
1.65394e-05
1.65271e-05
1.63413e-05
1.63352e-05
1.65363e-05
1.63282e-05
1.6347e-05
1.70322e-05
1.70261e-05
1.6537e-05
1.63359e-05
1.63477e-05
1.70618e-05
1.71215e-05
1.72803e-05
1.62995e-05
1.62854e-05
1.61925e-05
1.61826e-05
1.70466e-05
1.72594e-05
1.63e-05
1.62922e-05
1.61932e-05
1.61892e-05
1.62809e-05
1.61828e-05
1.61644e-05
1.70807e-05
1.72775e-05
1.62815e-05
1.61895e-05
1.61651e-05
1.71973e-05
1.72893e-05
1.75167e-05
1.61386e-05
1.61404e-05
1.60971e-05
1.61193e-05
1.72927e-05
1.76296e-05
1.61392e-05
1.61576e-05
1.60975e-05
1.60997e-05
1.61627e-05
1.6119e-05
1.61142e-05
1.732e-05
1.75104e-05
1.61634e-05
1.60997e-05
1.61147e-05
1.7634e-05
1.76832e-05
1.80569e-05
1.61164e-05
1.61369e-05
1.61432e-05
1.61474e-05
1.77852e-05
1.80629e-05
1.61168e-05
1.61105e-05
1.61437e-05
1.61618e-05
1.61037e-05
1.61472e-05
1.6129e-05
1.76432e-05
1.81485e-05
1.61042e-05
1.61617e-05
1.61296e-05
1.79808e-05
1.81168e-05
1.86355e-05
1.61525e-05
1.61523e-05
1.62505e-05
1.62364e-05
1.81129e-05
1.85452e-05
1.61531e-05
1.61645e-05
1.62509e-05
1.62168e-05
1.6139e-05
1.62357e-05
1.62179e-05
1.81809e-05
1.84471e-05
1.61396e-05
1.62163e-05
1.62185e-05
1.84831e-05
1.87588e-05
1.92784e-05
1.62911e-05
1.62785e-05
1.6463e-05
1.64533e-05
1.86839e-05
1.92436e-05
1.62916e-05
1.62643e-05
1.64631e-05
1.6442e-05
1.62907e-05
1.64522e-05
1.64781e-05
1.86018e-05
1.92142e-05
1.62912e-05
1.64411e-05
1.64786e-05
1.94051e-05
1.93944e-05
1.99238e-05
1.65071e-05
1.65144e-05
1.67223e-05
1.67248e-05
1.93932e-05
1.99442e-05
1.65074e-05
1.65138e-05
1.67225e-05
1.67449e-05
1.6544e-05
1.67238e-05
1.67551e-05
1.9385e-05
2.00479e-05
1.65444e-05
1.67442e-05
1.67554e-05
2.00712e-05
2.01576e-05
2.09424e-05
1.68275e-05
1.68202e-05
1.71302e-05
1.71353e-05
2.01339e-05
2.09337e-05
1.68278e-05
1.68351e-05
1.71301e-05
1.7146e-05
1.6828e-05
1.71338e-05
1.71144e-05
2.02218e-05
2.09739e-05
1.68284e-05
1.71449e-05
1.71147e-05
2.08399e-05
2.11111e-05
2.18327e-05
1.72348e-05
1.72399e-05
1.759e-05
1.75768e-05
2.11088e-05
2.17861e-05
1.72349e-05
1.72526e-05
1.75899e-05
1.75777e-05
1.72188e-05
1.7575e-05
1.75854e-05
2.11545e-05
2.17805e-05
1.72191e-05
1.75761e-05
1.75855e-05
2.18093e-05
2.20235e-05
2.27871e-05
1.77066e-05
1.77106e-05
1.81263e-05
1.81389e-05
2.19991e-05
2.28508e-05
1.77065e-05
1.77041e-05
1.81259e-05
1.81278e-05
1.7711e-05
1.81367e-05
1.81242e-05
2.19726e-05
2.27996e-05
1.77111e-05
1.81259e-05
1.8124e-05
2.27938e-05
2.30107e-05
2.38135e-05
1.82678e-05
1.8283e-05
1.87363e-05
1.87273e-05
2.30538e-05
2.37865e-05
1.82675e-05
1.82704e-05
1.87354e-05
1.87278e-05
1.82694e-05
1.87249e-05
1.87368e-05
2.30061e-05
2.37954e-05
1.82692e-05
1.87258e-05
1.87362e-05
2.38259e-05
2.40516e-05
2.48655e-05
1.89047e-05
1.88927e-05
1.94117e-05
1.94195e-05
2.4008e-05
2.48956e-05
1.8904e-05
1.89017e-05
1.94107e-05
1.94282e-05
1.89005e-05
1.94168e-05
1.94175e-05
2.4038e-05
2.4922e-05
1.89e-05
1.94261e-05
1.94169e-05
2.48844e-05
2.50966e-05
2.59511e-05
1.95974e-05
1.96031e-05
2.01551e-05
2.01605e-05
2.51258e-05
2.59577e-05
1.95964e-05
1.96064e-05
2.01537e-05
2.01595e-05
1.95972e-05
2.01576e-05
2.01623e-05
2.51368e-05
2.59545e-05
1.95965e-05
2.01573e-05
2.01613e-05
2.5962e-05
2.61759e-05
2.70572e-05
2.03493e-05
2.03545e-05
2.0965e-05
2.09599e-05
2.6185e-05
2.70337e-05
2.0348e-05
2.03561e-05
2.09634e-05
2.09606e-05
2.03554e-05
2.09569e-05
2.09661e-05
2.61865e-05
2.70372e-05
2.03543e-05
2.09582e-05
2.09649e-05
2.7048e-05
2.72914e-05
2.81231e-05
2.11717e-05
2.1165e-05
2.18162e-05
2.18148e-05
2.72649e-05
2.81219e-05
2.11702e-05
2.11663e-05
2.18142e-05
2.18159e-05
2.11739e-05
2.18117e-05
2.18137e-05
2.72664e-05
2.81258e-05
2.11726e-05
2.18132e-05
2.18122e-05
2.81182e-05
2.83589e-05
2.91891e-05
2.20359e-05
2.20363e-05
2.2709e-05
2.2713e-05
2.8362e-05
2.91953e-05
2.20341e-05
2.20371e-05
2.27067e-05
2.27149e-05
2.20363e-05
2.271e-05
2.27121e-05
2.83648e-05
2.91993e-05
2.20347e-05
2.27123e-05
2.27102e-05
2.91962e-05
2.94274e-05
3.02527e-05
2.29417e-05
2.29445e-05
2.36487e-05
2.36466e-05
2.94303e-05
3.02469e-05
2.29395e-05
2.29459e-05
2.36462e-05
2.36482e-05
2.29432e-05
2.36434e-05
2.36471e-05
2.94338e-05
3.02495e-05
2.29413e-05
2.36455e-05
2.3645e-05
3.02467e-05
3.04795e-05
3.12889e-05
2.38852e-05
2.38852e-05
2.46121e-05
2.46126e-05
3.04778e-05
3.12876e-05
2.38828e-05
2.38868e-05
2.46094e-05
2.46143e-05
2.38843e-05
2.46095e-05
2.46165e-05
3.04804e-05
3.12914e-05
2.38822e-05
2.46117e-05
2.46141e-05
3.12991e-05
3.15221e-05
3.23112e-05
2.48601e-05
2.48593e-05
2.56078e-05
2.56074e-05
3.15179e-05
3.23095e-05
2.48575e-05
2.48614e-05
2.56049e-05
2.5609e-05
2.48645e-05
2.56043e-05
2.5608e-05
3.15218e-05
3.23122e-05
2.48621e-05
2.56064e-05
2.56055e-05
3.23074e-05
3.25343e-05
3.33073e-05
2.58582e-05
2.58579e-05
2.66178e-05
2.66187e-05
3.25337e-05
3.33081e-05
2.58555e-05
2.58593e-05
2.66148e-05
2.662e-05
2.58582e-05
2.66157e-05
2.66216e-05
3.25354e-05
3.33102e-05
2.58556e-05
2.66175e-05
2.66189e-05
3.3315e-05
3.353e-05
3.42868e-05
2.68737e-05
2.68743e-05
2.76446e-05
2.76431e-05
3.35299e-05
3.42819e-05
2.6871e-05
2.68758e-05
2.76416e-05
2.76455e-05
2.68776e-05
2.76402e-05
2.76467e-05
3.35321e-05
3.42872e-05
2.68749e-05
2.76433e-05
2.76439e-05
3.42871e-05
3.45034e-05
3.52355e-05
2.79026e-05
2.79014e-05
2.86769e-05
2.8677e-05
3.44999e-05
3.52349e-05
2.78998e-05
2.79042e-05
2.8674e-05
2.86783e-05
2.79046e-05
2.86743e-05
2.86786e-05
3.4505e-05
3.52359e-05
2.79019e-05
2.86762e-05
2.86757e-05
3.52363e-05
3.54462e-05
3.61675e-05
2.89348e-05
2.89346e-05
2.97121e-05
2.97122e-05
3.5445e-05
3.61662e-05
2.89321e-05
2.89357e-05
2.97092e-05
2.97142e-05
2.89369e-05
2.97096e-05
2.97152e-05
3.54457e-05
3.61696e-05
2.89341e-05
2.97125e-05
2.97124e-05
3.61703e-05
3.63749e-05
3.70631e-05
2.99717e-05
2.99717e-05
3.07445e-05
3.07449e-05
3.63735e-05
3.70644e-05
2.99692e-05
2.99734e-05
3.07419e-05
3.07465e-05
2.99747e-05
3.07425e-05
3.0748e-05
3.63759e-05
3.70666e-05
2.99718e-05
3.0745e-05
3.07452e-05
3.70661e-05
3.72632e-05
3.79461e-05
3.1001e-05
3.10021e-05
3.17709e-05
3.1769e-05
3.72651e-05
3.79385e-05
3.09986e-05
3.10037e-05
3.17684e-05
3.17709e-05
3.10043e-05
3.17667e-05
3.17733e-05
3.72673e-05
3.7942e-05
3.10015e-05
3.17696e-05
3.17705e-05
3.79473e-05
3.81418e-05
3.87978e-05
3.20266e-05
3.20245e-05
3.27875e-05
3.27886e-05
3.81354e-05
3.87998e-05
3.20244e-05
3.20266e-05
3.27852e-05
3.27899e-05
3.20296e-05
3.27864e-05
3.27921e-05
3.8139e-05
3.88009e-05
3.20269e-05
3.2789e-05
3.27894e-05
3.88007e-05
3.89882e-05
3.96259e-05
3.30394e-05
3.30403e-05
3.37884e-05
3.37875e-05
3.89879e-05
3.96231e-05
3.30373e-05
3.30415e-05
3.37861e-05
3.37889e-05
3.30432e-05
3.37854e-05
3.37909e-05
3.89888e-05
3.96261e-05
3.30406e-05
3.37881e-05
3.37883e-05
3.96286e-05
3.98085e-05
4.04207e-05
3.40352e-05
3.40344e-05
3.47675e-05
3.47686e-05
3.98074e-05
4.04211e-05
3.40332e-05
3.40362e-05
3.47654e-05
3.47703e-05
3.40383e-05
3.47667e-05
3.47714e-05
3.98105e-05
4.04232e-05
3.40358e-05
3.47698e-05
3.4769e-05
4.04215e-05
4.05995e-05
4.12132e-05
3.50096e-05
3.50107e-05
3.57325e-05
3.57313e-05
4.05994e-05
4.12087e-05
3.50077e-05
3.50121e-05
3.57304e-05
3.57321e-05
3.50131e-05
3.57295e-05
3.57355e-05
4.06007e-05
4.12102e-05
3.50108e-05
3.57317e-05
3.57332e-05
4.12162e-05
4.13879e-05
4.19589e-05
3.59715e-05
3.59702e-05
3.66745e-05
3.66748e-05
4.13842e-05
4.19587e-05
3.59697e-05
3.59711e-05
3.66725e-05
3.66762e-05
3.59749e-05
3.66732e-05
3.66781e-05
4.13859e-05
4.19612e-05
3.59726e-05
3.66762e-05
3.6676e-05
4.19602e-05
3.73773e-05
3.73765e-05
3.7377e-05
3.7377e-05
3.73701e-05
3.73777e-05
3.73043e-05
3.73768e-05
3.73702e-05
3.73777e-05
3.73768e-05
3.73043e-05
3.73741e-05
3.72959e-05
3.72959e-05
3.58797e-05
4.08723e-05
3.66034e-05
4.51463e-05
5.51147e-05
6.48951e-05
3.58803e-05
4.08713e-05
3.66034e-05
4.51464e-05
3.58932e-05
3.58933e-05
3.58932e-05
3.44005e-05
3.44005e-05
3.44005e-05
3.44005e-05
3.52758e-05
3.56384e-05
3.58929e-05
3.53771e-05
3.60476e-05
3.42365e-05
3.53822e-05
5.51168e-05
6.48993e-05
3.52758e-05
3.58929e-05
3.5638e-05
3.53771e-05
3.60475e-05
3.53822e-05
3.42375e-05
3.65972e-05
3.65977e-05
3.5279e-05
3.40641e-05
3.40632e-05
3.39657e-05
5.13541e-05
3.46793e-05
5.46244e-05
7.65449e-05
8.08613e-05
3.39681e-05
5.13546e-05
3.46789e-05
5.46248e-05
3.39296e-05
3.39297e-05
3.39297e-05
3.25854e-05
3.25854e-05
3.25855e-05
3.25855e-05
3.3054e-05
3.24751e-05
3.39295e-05
3.34087e-05
3.38961e-05
3.15752e-05
3.34678e-05
7.6546e-05
8.08654e-05
3.30541e-05
3.39295e-05
3.24739e-05
3.34087e-05
3.38958e-05
3.34678e-05
3.15771e-05
3.1717e-05
3.17163e-05
3.32637e-05
3.09256e-05
3.0924e-05
3.22496e-05
5.91701e-05
3.29237e-05
6.14378e-05
8.43921e-05
8.50676e-05
3.22518e-05
5.9172e-05
3.29216e-05
6.14408e-05
3.21578e-05
3.21578e-05
3.21578e-05
3.09282e-05
3.09282e-05
3.09281e-05
3.09282e-05
3.07893e-05
3.05138e-05
3.21376e-05
3.15541e-05
3.16369e-05
2.98863e-05
3.17101e-05
8.43939e-05
8.50702e-05
3.07892e-05
3.21376e-05
3.05138e-05
3.1554e-05
3.16364e-05
3.17101e-05
2.98873e-05
3.02178e-05
3.02168e-05
3.12731e-05
3.00049e-05
3.00034e-05
3.07529e-05
6.43564e-05
3.13503e-05
6.57296e-05
8.46117e-05
8.39111e-05
3.07538e-05
6.43566e-05
3.13506e-05
6.57292e-05
3.05346e-05
3.05346e-05
3.05346e-05
2.9398e-05
2.9398e-05
2.93979e-05
2.9398e-05
2.86006e-05
2.91415e-05
3.04694e-05
2.98005e-05
2.94131e-05
2.86745e-05
3.00687e-05
8.46114e-05
8.39138e-05
2.86005e-05
3.04694e-05
2.91421e-05
2.98004e-05
2.94126e-05
3.00687e-05
2.86756e-05
2.99416e-05
2.99406e-05
2.93483e-05
3.00364e-05
3.00353e-05
2.95179e-05
6.73189e-05
3.00008e-05
6.80377e-05
8.22141e-05
8.12201e-05
2.95188e-05
6.73274e-05
3.00011e-05
6.80438e-05
2.90329e-05
2.90328e-05
2.90328e-05
2.79756e-05
2.79756e-05
2.79756e-05
2.79756e-05
2.65677e-05
2.81231e-05
2.89027e-05
2.8152e-05
2.73172e-05
2.77813e-05
2.85257e-05
8.22126e-05
8.1222e-05
2.65678e-05
2.89027e-05
2.81235e-05
2.81519e-05
2.73167e-05
2.85256e-05
2.77822e-05
3.04461e-05
3.04467e-05
2.7533e-05
3.07683e-05
3.07678e-05
2.86039e-05
6.87361e-05
2.89476e-05
6.90363e-05
7.94362e-05
7.85318e-05
2.86049e-05
6.87455e-05
2.89478e-05
6.90447e-05
2.76353e-05
2.76353e-05
2.76353e-05
2.66486e-05
2.66487e-05
2.66486e-05
2.66486e-05
2.47437e-05
2.74065e-05
2.74287e-05
2.66128e-05
2.54142e-05
2.71911e-05
2.70743e-05
7.94339e-05
7.85334e-05
2.4744e-05
2.74286e-05
2.74066e-05
2.66126e-05
2.54135e-05
2.70741e-05
2.71922e-05
3.15811e-05
3.15806e-05
2.58511e-05
3.21006e-05
3.20991e-05
2.80579e-05
6.92548e-05
2.82444e-05
6.93106e-05
7.70067e-05
7.6286e-05
2.80589e-05
6.92537e-05
2.82445e-05
6.93103e-05
2.63308e-05
2.63307e-05
2.63307e-05
2.54084e-05
2.54084e-05
2.54083e-05
2.54084e-05
2.31636e-05
2.70016e-05
2.60445e-05
2.51841e-05
2.37465e-05
2.69211e-05
2.57123e-05
7.70052e-05
7.62875e-05
2.3164e-05
2.60444e-05
2.70018e-05
2.51839e-05
2.37458e-05
2.57121e-05
2.69217e-05
3.32305e-05
3.32324e-05
2.432e-05
3.3896e-05
3.38968e-05
2.79138e-05
6.93047e-05
2.79277e-05
6.92734e-05
7.50738e-05
7.45342e-05
2.79141e-05
6.92986e-05
2.79272e-05
6.92762e-05
2.51112e-05
2.51111e-05
2.51111e-05
2.42488e-05
2.42488e-05
2.42486e-05
2.42487e-05
2.18472e-05
2.69346e-05
2.47489e-05
2.38659e-05
2.23369e-05
2.69824e-05
2.44388e-05
7.50741e-05
7.45353e-05
2.18471e-05
2.47488e-05
2.69342e-05
2.38657e-05
2.23359e-05
2.44386e-05
2.69831e-05
3.52129e-05
3.5219e-05
2.29424e-05
3.60684e-05
3.60718e-05
2.81578e-05
6.92117e-05
2.80343e-05
6.91644e-05
7.36089e-05
7.32114e-05
2.81598e-05
6.91957e-05
2.80297e-05
6.91706e-05
2.3971e-05
2.39708e-05
2.39709e-05
2.31652e-05
2.31652e-05
2.3165e-05
2.31651e-05
2.08007e-05
2.71981e-05
2.3541e-05
2.26595e-05
2.11958e-05
2.73561e-05
2.32523e-05
7.36098e-05
7.32116e-05
2.08015e-05
2.35409e-05
2.72004e-05
2.26592e-05
2.11944e-05
2.3252e-05
2.73551e-05
3.73815e-05
3.73866e-05
2.17209e-05
3.83949e-05
3.83978e-05
2.882e-05
6.91276e-05
2.85585e-05
6.90999e-05
7.25288e-05
7.22416e-05
2.88259e-05
6.91162e-05
2.85534e-05
6.91107e-05
2.29058e-05
2.29056e-05
2.29057e-05
2.21538e-05
2.21538e-05
2.21536e-05
2.21538e-05
2.00274e-05
2.7779e-05
2.24172e-05
2.1563e-05
2.03184e-05
2.80346e-05
2.21492e-05
7.25302e-05
7.22419e-05
2.00273e-05
2.2417e-05
2.77816e-05
2.15628e-05
2.03187e-05
2.2149e-05
2.80346e-05
3.97768e-05
3.97813e-05
2.06513e-05
4.08788e-05
4.08863e-05
2.99433e-05
6.91017e-05
2.94826e-05
6.91242e-05
7.17483e-05
7.15524e-05
2.99411e-05
6.91022e-05
2.94524e-05
6.91169e-05
2.1912e-05
2.19118e-05
2.19119e-05
2.12115e-05
2.12115e-05
2.12113e-05
2.12114e-05
1.95221e-05
2.86465e-05
2.1377e-05
2.05742e-05
1.97031e-05
2.89972e-05
2.113e-05
7.17517e-05
7.1549e-05
1.95221e-05
2.13768e-05
2.86479e-05
2.0574e-05
1.97028e-05
2.11298e-05
2.89966e-05
4.22968e-05
4.23039e-05
1.97261e-05
4.31654e-05
4.31712e-05
3.14468e-05
6.91524e-05
3.0816e-05
6.91937e-05
7.1205e-05
7.10626e-05
3.14615e-05
6.91547e-05
3.07951e-05
6.91959e-05
2.09865e-05
2.09863e-05
2.09864e-05
2.03339e-05
2.0334e-05
2.03338e-05
2.03339e-05
1.92798e-05
2.97798e-05
2.042e-05
1.96902e-05
1.93525e-05
3.01886e-05
2.01934e-05
7.12004e-05
7.10661e-05
1.92799e-05
2.04199e-05
2.978e-05
1.969e-05
1.93522e-05
2.01932e-05
3.01905e-05
4.45667e-05
4.45744e-05
1.89376e-05
4.5566e-05
4.55739e-05
3.33117e-05
6.92369e-05
3.2535e-05
6.92834e-05
7.08154e-05
7.07229e-05
3.33192e-05
6.92524e-05
3.25399e-05
6.92939e-05
2.01241e-05
2.01239e-05
2.01241e-05
1.95181e-05
1.95181e-05
1.95179e-05
1.95181e-05
1.92958e-05
3.11089e-05
1.95434e-05
1.89089e-05
1.92657e-05
3.15761e-05
1.93364e-05
7.08181e-05
7.07198e-05
1.92966e-05
1.95433e-05
3.1109e-05
1.89088e-05
1.92654e-05
1.93362e-05
3.15801e-05
4.69531e-05
4.6965e-05
1.8283e-05
4.76011e-05
4.76093e-05
3.55328e-05
6.93489e-05
3.45945e-05
6.94034e-05
7.05486e-05
7.04725e-05
3.55299e-05
6.93594e-05
3.46062e-05
6.941e-05
1.9324e-05
1.93238e-05
1.9324e-05
1.87642e-05
1.87645e-05
1.87641e-05
1.87642e-05
1.95657e-05
3.26167e-05
1.87442e-05
1.8229e-05
1.94494e-05
3.31011e-05
1.85561e-05
7.05467e-05
7.0478e-05
1.95653e-05
1.87441e-05
3.26171e-05
1.82291e-05
1.94502e-05
1.8556e-05
3.31147e-05
4.87232e-05
4.87347e-05
1.7767e-05
4.98543e-05
4.98637e-05
3.79493e-05
6.94642e-05
3.69772e-05
6.95111e-05
7.03313e-05
7.02905e-05
3.79525e-05
6.94695e-05
3.69682e-05
6.95153e-05
1.85855e-05
1.85851e-05
1.85852e-05
1.80698e-05
1.807e-05
1.80698e-05
1.80704e-05
2.00862e-05
3.42417e-05
1.80199e-05
1.76451e-05
1.98893e-05
3.47003e-05
1.78503e-05
7.03311e-05
7.03007e-05
2.00873e-05
1.80198e-05
3.42071e-05
1.76466e-05
1.98881e-05
1.78501e-05
3.4722e-05
5.07043e-05
5.07092e-05
1.74167e-05
5.13789e-05
5.13911e-05
4.05474e-05
6.95671e-05
3.94902e-05
6.96084e-05
7.01915e-05
7.0164e-05
4.05517e-05
6.95721e-05
3.94869e-05
6.96141e-05
1.79064e-05
1.7906e-05
1.79063e-05
1.74319e-05
1.74329e-05
1.74325e-05
1.74323e-05
2.08668e-05
3.58648e-05
1.73689e-05
1.71798e-05
2.05807e-05
3.64802e-05
1.72173e-05
7.02041e-05
7.01645e-05
2.08667e-05
1.73688e-05
3.5856e-05
1.71775e-05
2.05811e-05
1.72171e-05
3.64903e-05
5.24994e-05
5.25147e-05
1.72211e-05
5.3055e-05
5.30596e-05
4.31402e-05
6.96554e-05
4.21035e-05
6.9694e-05
7.00748e-05
7.00597e-05
4.31508e-05
6.96609e-05
4.20962e-05
6.96998e-05
1.72816e-05
1.72813e-05
1.72813e-05
1.68491e-05
1.68491e-05
1.68486e-05
1.68482e-05
2.18723e-05
3.75915e-05
1.67887e-05
1.67679e-05
2.15164e-05
3.81613e-05
1.66543e-05
7.00879e-05
7.00435e-05
2.18727e-05
1.67886e-05
3.76035e-05
1.67676e-05
2.15154e-05
1.66543e-05
3.81568e-05
5.39889e-05
5.39974e-05
1.70223e-05
5.4408e-05
5.44178e-05
4.56831e-05
6.9745e-05
4.46794e-05
6.97708e-05
6.9986e-05
6.99394e-05
4.56886e-05
6.97508e-05
4.46749e-05
6.97765e-05
1.67112e-05
1.67105e-05
1.67113e-05
1.63172e-05
1.63157e-05
1.63163e-05
1.63183e-05
2.3098e-05
3.93482e-05
1.62779e-05
1.64535e-05
2.2671e-05
3.98486e-05
1.61602e-05
6.99777e-05
6.9939e-05
2.30983e-05
1.62777e-05
3.93336e-05
1.64526e-05
2.26697e-05
1.61601e-05
3.98272e-05
5.54171e-05
5.54266e-05
1.70812e-05
5.57057e-05
5.57177e-05
4.80257e-05
6.98173e-05
4.70646e-05
6.98643e-05
6.98761e-05
6.98658e-05
4.80279e-05
6.9823e-05
4.70734e-05
6.98701e-05
1.6192e-05
1.61923e-05
1.61921e-05
1.58397e-05
1.58381e-05
1.58389e-05
1.58355e-05
2.45024e-05
4.08897e-05
1.58343e-05
1.62497e-05
2.40187e-05
4.14408e-05
1.57342e-05
6.98701e-05
6.98605e-05
2.45048e-05
1.58345e-05
4.09093e-05
1.62525e-05
2.40202e-05
1.57344e-05
4.14139e-05
5.65835e-05
5.6594e-05
1.70255e-05
5.66934e-05
5.67038e-05
5.00998e-05
6.98946e-05
4.93216e-05
6.99137e-05
6.97647e-05
6.97567e-05
5.01224e-05
6.99003e-05
4.93215e-05
6.99199e-05
1.57246e-05
1.5726e-05
1.57262e-05
1.5406e-05
1.54086e-05
1.54057e-05
1.5408e-05
2.60454e-05
4.24501e-05
1.54591e-05
1.61139e-05
2.55214e-05
4.28165e-05
1.5375e-05
6.97766e-05
6.97483e-05
2.60522e-05
1.54596e-05
4.25181e-05
1.61189e-05
2.55201e-05
1.53752e-05
4.29119e-05
5.75059e-05
5.75179e-05
1.75273e-05
5.78462e-05
5.78609e-05
5.20092e-05
6.99752e-05
5.12509e-05
7e-05
6.97e-05
6.96908e-05
5.20044e-05
6.99794e-05
5.12325e-05
7.00055e-05
1.53109e-05
1.53085e-05
1.53078e-05
1.50263e-05
1.5027e-05
1.50287e-05
1.5025e-05
2.76995e-05
4.38998e-05
1.51536e-05
1.61443e-05
2.7142e-05
4.43739e-05
1.50872e-05
6.97058e-05
6.97044e-05
2.76922e-05
1.51525e-05
4.37833e-05
1.61391e-05
2.71343e-05
1.50868e-05
4.44072e-05
5.83021e-05
5.83063e-05
1.77235e-05
5.8804e-05
5.88189e-05
5.3543e-05
7.00292e-05
5.2907e-05
7.00579e-05
6.96251e-05
6.96173e-05
5.35396e-05
7.0035e-05
5.29195e-05
7.00631e-05
1.49375e-05
1.49388e-05
1.4936e-05
1.46911e-05
1.46889e-05
1.46871e-05
1.46869e-05
2.93909e-05
4.52168e-05
1.4912e-05
1.61653e-05
2.88373e-05
4.56576e-05
1.48611e-05
6.96313e-05
6.9624e-05
2.93915e-05
1.49131e-05
4.52269e-05
1.61692e-05
2.88454e-05
1.48612e-05
4.56865e-05
5.90352e-05
5.90529e-05
1.81294e-05
5.9186e-05
5.91919e-05
5.48388e-05
7.00869e-05
5.4329e-05
7.01244e-05
6.95579e-05
6.95521e-05
5.48418e-05
7.00928e-05
5.4332e-05
7.01311e-05
1.46125e-05
1.4611e-05
1.46136e-05
1.44039e-05
1.44024e-05
1.4401e-05
1.4406e-05
3.10936e-05
4.6396e-05
1.47389e-05
1.63287e-05
3.05241e-05
4.68654e-05
1.47057e-05
6.95606e-05
6.95416e-05
3.10932e-05
1.47382e-05
4.64214e-05
1.63157e-05
3.05234e-05
1.4705e-05
4.6863e-05
5.96422e-05
5.96649e-05
1.90423e-05
5.98829e-05
5.98869e-05
5.59461e-05
7.01425e-05
5.55458e-05
7.01604e-05
6.94938e-05
6.94703e-05
5.5945e-05
7.01473e-05
5.55403e-05
7.01675e-05
1.43375e-05
1.43371e-05
1.43418e-05
1.41574e-05
1.41579e-05
1.41603e-05
1.41624e-05
3.27754e-05
4.7564e-05
1.46374e-05
1.65746e-05
3.22187e-05
4.7945e-05
1.4621e-05
6.94999e-05
6.94679e-05
3.27733e-05
1.46372e-05
4.75486e-05
1.65876e-05
3.22155e-05
1.46214e-05
4.79576e-05
6.02164e-05
6.0224e-05
1.97334e-05
6.05914e-05
6.06006e-05
5.68724e-05
7.01888e-05
5.64999e-05
7.02103e-05
6.94396e-05
6.94152e-05
5.68707e-05
7.01947e-05
5.65061e-05
7.02164e-05
1.41053e-05
1.41075e-05
1.41081e-05
1.39651e-05
1.39658e-05
1.39675e-05
1.39632e-05
3.43843e-05
4.85655e-05
1.46035e-05
1.69228e-05
3.38393e-05
4.89505e-05
1.46062e-05
6.94355e-05
6.94136e-05
3.43833e-05
1.46049e-05
4.85511e-05
1.69337e-05
3.38431e-05
1.46075e-05
4.89391e-05
6.06813e-05
6.06953e-05
2.03868e-05
6.10908e-05
6.10993e-05
5.76381e-05
7.02268e-05
5.73396e-05
7.02495e-05
6.938e-05
6.93529e-05
5.76413e-05
7.02328e-05
5.73415e-05
7.02561e-05
1.39239e-05
1.3926e-05
1.39213e-05
1.38146e-05
1.38127e-05
1.38134e-05
1.38138e-05
3.59209e-05
4.95379e-05
1.46404e-05
1.7343e-05
3.53958e-05
4.98289e-05
1.466e-05
6.93808e-05
6.93545e-05
3.5922e-05
1.46416e-05
4.95365e-05
1.7356e-05
3.5396e-05
1.46613e-05
4.98522e-05
6.11566e-05
6.11717e-05
2.13064e-05
6.15211e-05
6.15271e-05
5.82898e-05
7.02585e-05
5.80316e-05
7.02816e-05
6.93305e-05
6.93145e-05
5.82901e-05
7.02642e-05
5.80342e-05
7.02878e-05
1.37829e-05
1.37826e-05
1.37837e-05
1.37089e-05
1.3711e-05
1.37094e-05
1.37089e-05
3.73559e-05
5.03675e-05
1.47442e-05
1.7849e-05
3.68471e-05
5.06819e-05
1.47818e-05
6.93275e-05
6.9315e-05
3.73542e-05
1.47445e-05
5.03586e-05
1.7839e-05
3.68482e-05
1.47817e-05
5.06876e-05
6.16146e-05
6.1632e-05
2.23003e-05
6.18625e-05
6.18651e-05
5.88619e-05
7.02947e-05
5.86369e-05
7.03064e-05
6.92815e-05
6.92665e-05
5.88623e-05
7.03009e-05
5.8639e-05
7.03124e-05
1.3692e-05
1.36903e-05
1.36902e-05
1.3649e-05
1.36482e-05
1.36483e-05
1.36494e-05
3.86947e-05
5.11711e-05
1.49199e-05
1.84236e-05
3.8212e-05
5.14436e-05
1.49739e-05
6.92766e-05
6.9265e-05
3.86933e-05
1.49193e-05
5.11617e-05
1.84114e-05
3.82121e-05
1.49734e-05
5.14202e-05
6.20418e-05
6.20611e-05
2.33066e-05
6.22096e-05
6.22132e-05
5.93576e-05
7.03297e-05
5.91486e-05
7.0337e-05
6.92419e-05
6.92357e-05
5.93615e-05
7.0336e-05
5.91492e-05
7.03435e-05
1.36404e-05
1.36415e-05
1.36423e-05
1.36354e-05
1.36358e-05
1.36379e-05
1.36363e-05
3.9926e-05
5.18677e-05
1.51598e-05
1.90618e-05
3.9468e-05
5.21589e-05
1.52308e-05
6.92469e-05
6.92366e-05
3.99279e-05
1.51606e-05
5.18816e-05
1.9076e-05
3.94669e-05
1.52324e-05
5.21734e-05
6.24361e-05
6.24517e-05
2.43528e-05
6.25478e-05
6.25596e-05
5.9798e-05
7.03584e-05
5.96144e-05
7.03702e-05
6.92104e-05
6.92031e-05
5.97985e-05
7.03643e-05
5.96168e-05
7.03761e-05
1.36392e-05
1.36408e-05
1.36393e-05
1.36656e-05
1.36666e-05
1.36667e-05
1.36669e-05
4.10699e-05
5.25565e-05
1.54696e-05
1.97853e-05
4.06392e-05
5.28238e-05
1.55573e-05
6.92084e-05
6.92024e-05
4.10693e-05
1.5471e-05
5.25516e-05
1.97846e-05
4.06398e-05
1.55583e-05
5.28163e-05
6.2769e-05
6.27819e-05
2.54208e-05
6.28858e-05
6.28982e-05
6.01922e-05
7.03842e-05
6.00304e-05
7.04019e-05
6.91818e-05
6.9179e-05
6.01951e-05
7.03903e-05
6.00314e-05
7.04082e-05
1.36811e-05
1.36815e-05
1.36816e-05
1.37434e-05
1.37426e-05
1.37434e-05
1.37443e-05
4.21234e-05
5.3169e-05
1.58427e-05
2.05521e-05
4.17189e-05
5.34383e-05
1.59459e-05
6.91829e-05
6.9179e-05
4.21244e-05
1.58431e-05
5.31759e-05
2.05547e-05
4.17179e-05
1.59468e-05
5.34409e-05
6.30751e-05
6.30876e-05
2.65024e-05
6.31897e-05
6.3202e-05
6.05599e-05
7.04163e-05
6.04134e-05
7.04319e-05
6.91598e-05
6.91612e-05
6.05612e-05
7.04222e-05
6.04147e-05
7.04381e-05
1.37685e-05
1.37694e-05
1.37707e-05
1.38669e-05
1.38658e-05
1.38667e-05
1.3867e-05
4.31045e-05
5.37543e-05
1.62787e-05
2.13733e-05
4.27231e-05
5.39971e-05
1.63973e-05
6.91596e-05
6.91618e-05
4.31044e-05
1.62796e-05
5.37512e-05
2.13757e-05
4.27226e-05
1.63985e-05
5.40018e-05
6.33883e-05
6.33996e-05
2.75863e-05
6.34606e-05
6.34733e-05
6.09018e-05
7.04511e-05
6.07618e-05
7.04648e-05
6.91485e-05
6.91478e-05
6.09035e-05
7.04572e-05
6.07636e-05
7.04712e-05
1.39042e-05
1.39051e-05
1.39052e-05
1.40356e-05
1.40361e-05
1.40373e-05
1.40368e-05
4.40198e-05
5.43317e-05
1.67767e-05
2.22555e-05
4.36558e-05
5.45395e-05
1.69105e-05
6.91479e-05
6.91485e-05
4.40195e-05
1.67777e-05