/*--------------------------------*- C++ -*----------------------------------*\
| =========                 |                                                 |
| \\      /  F ield         | OpenFOAM: The Open Source CFD Toolbox           |
|  \\    /   O peration     | Version:  v2012                                 |
|   \\  /    A nd           | Website:  www.openfoam.com                      |
|    \\/     M anipulation  |                                                 |
\*---------------------------------------------------------------------------*/
FoamFile
{
    version     2.0;
    format      ascii;
    class       volScalarField;
    location    "875";
    object      nut;
}
// * * * * * * * * * * * * * * * * * * * * * * * * * * * * * * * * * * * * * //

dimensions      [0 2 -1 0 0 0 0];


internalField   nonuniform List<scalar> 
85864
(
0.000233973
0.000233116
0.000233116
0.000233423
0.000232532
0.000227802
0.000227801
0.000223867
0.000230516
0.00022032
0.000220318
0.000209109
0.000227799
0.000211665
0.000211661
0.000193785
0.000224433
0.00020265
0.000202644
0.000179709
0.000220552
0.000193772
0.000193765
0.00016734
0.000216304
0.000185275
0.000185268
0.000156587
0.00021182
0.000177234
0.000177226
0.000147206
0.000207207
0.000169688
0.00016968
0.000138952
0.000202545
0.000162612
0.000162603
0.000131616
0.00019789
0.000155951
0.000155942
0.000124957
0.000193276
0.000149651
0.000149642
0.000118843
0.000188683
0.000143667
0.000143658
0.000113188
0.000184154
0.000137977
0.000137973
0.000108156
0.000179716
0.000132545
0.000132522
0.000103557
0.000175362
0.000127547
0.000127499
9.98742e-05
0.000171061
0.000122363
0.000122329
9.49048e-05
0.000166827
0.000117505
0.000117453
9.14816e-05
0.000162609
0.000112835
0.000112917
8.75493e-05
0.000158398
0.000108609
0.000108825
8.56496e-05
0.000154281
0.000105409
0.000105054
8.37333e-05
0.000150141
0.000101694
0.000101834
8.19584e-05
0.000146063
9.87239e-05
9.85393e-05
8.18992e-05
0.000142029
9.65069e-05
9.64862e-05
8.30858e-05
0.000138083
9.46089e-05
9.47648e-05
8.25563e-05
0.000134296
9.35536e-05
9.36799e-05
8.32199e-05
0.000130614
9.268e-05
9.25986e-05
8.49232e-05
0.000127137
9.2551e-05
9.24108e-05
8.65601e-05
0.000123894
9.25295e-05
9.26055e-05
8.8539e-05
0.00012089
9.32657e-05
9.32829e-05
9.07109e-05
0.000118165
9.41944e-05
9.41949e-05
9.30713e-05
0.000115788
9.55075e-05
9.55062e-05
9.55757e-05
0.000113734
9.72386e-05
9.72329e-05
9.80708e-05
0.000112017
9.91954e-05
9.91938e-05
0.000100715
0.000110682
0.000101358
0.000101358
0.000103328
0.000109694
0.000103762
0.000103765
0.000106147
0.000109092
0.000106349
0.000106348
0.000108756
0.000108842
0.000109091
0.000109089
0.000111554
0.00010896
0.000111949
0.000111959
0.000114253
0.000109421
0.000114908
0.000114904
0.000116943
0.000110216
0.000117972
0.000117974
0.000119693
0.000111338
0.000121074
0.000121074
0.000122312
0.000112752
0.000124216
0.000124222
0.000125013
0.00011447
0.00012743
0.00012743
0.000127616
0.000116441
0.000130607
0.000130611
0.000130219
0.000118651
0.000133792
0.000133794
0.000132707
0.000121089
0.000136996
0.000136995
0.00013534
0.000234266
0.000234448
0.000234449
0.000234267
0.000234448
0.000234449
0.000234274
0.000234274
0.000234274
0.000234274
0.000234448
0.000234448
0.000234266
0.000234448
0.000234448
0.000234266
0.000233423
0.000226204
0.000233116
0.000233114
0.000229361
0.000229357
0.000233423
0.000226205
0.000233114
0.000233114
0.000229359
0.000229356
0.000233116
0.000229364
0.000229361
0.000233423
0.000226202
0.000233114
0.000229363
0.000229359
0.000226202
0.000223867
0.00021223
0.000227799
0.000227794
0.000222332
0.000222326
0.000223868
0.000212234
0.000227797
0.000227792
0.000222332
0.000222323
0.000227798
0.000222339
0.000222331
0.000223866
0.000212227
0.000227797
0.000222336
0.000222331
0.000212228
0.000209111
0.00019706
0.000220313
0.000220307
0.000213879
0.000213874
0.000209112
0.000197066
0.000220314
0.000220304
0.000213883
0.000213869
0.000220311
0.00021389
0.000213877
0.000209108
0.000197057
0.000220313
0.000213886
0.000213882
0.000197057
0.000193788
0.000182876
0.000211654
0.000211648
0.00020489
0.000204884
0.000193792
0.000182882
0.000211658
0.000211643
0.000204898
0.000204879
0.000211651
0.000204905
0.000204887
0.000193784
0.000182871
0.000211657
0.000204899
0.000204896
0.000182873
0.000179712
0.000170268
0.000202634
0.000202628
0.000195943
0.000195938
0.000179717
0.000170274
0.000202643
0.000202622
0.000195954
0.000195931
0.000202631
0.000195962
0.00019594
0.000179709
0.000170263
0.000202641
0.000195955
0.000195953
0.000170263
0.000167344
0.000159242
0.000193753
0.000193747
0.000187336
0.000187331
0.000167349
0.000159249
0.000193765
0.00019374
0.000187351
0.000187324
0.000193749
0.000187359
0.000187334
0.000167339
0.000159238
0.000193764
0.000187351
0.00018735
0.000159238
0.000156592
0.000149613
0.000185253
0.000185247
0.000179173
0.000179168
0.000156597
0.00014962
0.000185268
0.00018524
0.000179191
0.00017916
0.000185249
0.000179198
0.00017917
0.000156587
0.000149608
0.000185267
0.00017919
0.00017919
0.000149608
0.000147211
0.000141108
0.000177209
0.000177203
0.000171501
0.000171496
0.000147217
0.000141115
0.000177227
0.000177196
0.000171522
0.000171488
0.000177205
0.000171529
0.000171499
0.000147207
0.000141102
0.000177225
0.00017152
0.000171521
0.0001411
0.000138958
0.000133548
0.00016966
0.000169655
0.00016431
0.000164304
0.000138961
0.000133553
0.000169682
0.000169648
0.000164333
0.000164297
0.000169658
0.00016434
0.000164308
0.000138949
0.000133542
0.000169681
0.000164331
0.000164332
0.000133544
0.000131621
0.000126692
0.000162581
0.000162576
0.000157547
0.000157542
0.00013163
0.000126696
0.000162605
0.000162568
0.000157572
0.000157535
0.000162579
0.00015758
0.000157546
0.000131619
0.000126682
0.000162604
0.000157571
0.000157573
0.000126685
0.000124963
0.000120379
0.000155918
0.000155914
0.000151161
0.000151156
0.000124971
0.000120381
0.000155943
0.000155905
0.000151186
0.000151149
0.000155917
0.000151195
0.000151161
0.00012496
0.000120371
0.000155944
0.000151187
0.000151187
0.00012037
0.000118841
0.000114408
0.000149618
0.000149611
0.000145095
0.000145101
0.000118846
0.00011449
0.000149644
0.000149604
0.000145123
0.00014509
0.000149617
0.000145141
0.000145097
0.000118841
0.000114473
0.000149644
0.00014513
0.000145127
0.000114432
0.000113184
0.000108987
0.000143636
0.000143627
0.000139342
0.00013934
0.000113233
0.000109001
0.000143664
0.000143617
0.000139373
0.00013933
0.000143632
0.000139384
0.000139352
0.000113211
0.000108962
0.000143662
0.000139373
0.000139381
0.000109013
0.000108114
0.000104087
0.000137942
0.000137933
0.00013384
0.000133862
0.000108107
0.000104126
0.000137972
0.00013793
0.00013387
0.000133829
0.000137948
0.000133905
0.000133859
0.000108091
0.000104048
0.000137976
0.000133872
0.000133889
0.000104213
0.000103417
9.978e-05
0.000132505
0.000132503
0.000128579
0.000128665
0.000103518
0.000100274
0.000132534
0.000132478
0.000128606
0.00012866
0.000132513
0.000128713
0.000128725
0.000103459
0.000100319
0.000132544
0.000128704
0.000128754
0.000100528
9.90824e-05
9.57528e-05
0.000127308
0.000127499
0.000123519
0.000123649
9.9833e-05
9.6244e-05
0.000127335
0.000127455
0.000123545
0.000123615
0.00012747
0.000123698
0.000123542
9.979e-05
9.62518e-05
0.000127499
0.000123661
0.000123569
9.57677e-05
9.49966e-05
9.24625e-05
0.000122276
0.000122316
0.000118754
0.000118696
9.54009e-05
9.2076e-05
0.000122302
0.000122284
0.000118779
0.000118657
0.000122255
0.000118741
0.000118639
9.53751e-05
9.20409e-05
0.000122282
0.000118701
0.000118665
9.21261e-05
9.16692e-05
8.86666e-05
0.000117588
0.000117459
0.000113975
0.000113788
9.12493e-05
8.79067e-05
0.000117613
0.000117408
0.000114
0.000113882
0.000117557
0.000113836
0.000114067
9.11977e-05
8.81924e-05
0.000117584
0.00011393
0.000114093
8.85618e-05
8.81738e-05
8.6275e-05
0.000112991
0.000112789
0.000109923
0.000109784
8.74139e-05
8.60765e-05
0.000113013
0.000112872
0.000109948
0.000109861
0.000112737
0.00010983
0.000109549
8.77502e-05
8.62406e-05
0.000112762
0.000109906
0.000109574
8.54435e-05
8.52455e-05
8.354e-05
0.000108542
0.000108559
0.000105717
0.000105998
8.5287e-05
8.46317e-05
0.000108565
0.000108779
0.000105737
0.000105729
0.000108872
0.000106043
0.000105945
8.55419e-05
8.34755e-05
0.000108897
0.000105774
0.000105967
8.46566e-05
8.39212e-05
8.31506e-05
0.000105109
0.000105365
0.000102586
0.000102626
8.4903e-05
8.32148e-05
0.000105127
0.000105008
0.000102606
0.000102797
0.000104946
0.000102673
0.000102409
8.35379e-05
8.39873e-05
0.000104968
0.000102842
0.000102431
8.24451e-05
8.24278e-05
8.25997e-05
0.000101666
0.000101647
9.95379e-05
9.93473e-05
8.24014e-05
8.18103e-05
0.000101684
0.00010179
9.95544e-05
9.90967e-05
0.000101497
9.93921e-05
9.91395e-05
8.30051e-05
8.093e-05
0.00010152
9.91392e-05
9.91614e-05
8.12474e-05
8.23675e-05
8.22284e-05
9.88504e-05
9.86795e-05
9.71767e-05
9.70425e-05
8.17199e-05
8.19397e-05
9.88679e-05
9.84955e-05
9.71898e-05
9.68976e-05
9.88447e-05
9.70838e-05
9.73543e-05
8.0987e-05
8.16718e-05
9.88661e-05
9.69364e-05
9.73746e-05
8.33048e-05
8.18706e-05
8.16137e-05
9.63994e-05
9.64647e-05
9.48596e-05
9.48668e-05
8.18685e-05
8.17899e-05
9.64131e-05
9.64461e-05
9.48734e-05
9.50843e-05
9.68284e-05
9.49112e-05
9.52296e-05
8.17837e-05
8.26248e-05
9.68474e-05
9.51262e-05
9.5247e-05
8.28172e-05
8.21792e-05
8.3822e-05
9.46693e-05
9.45662e-05
9.37848e-05
9.38199e-05
8.19953e-05
8.37616e-05
9.46838e-05
9.47222e-05
9.37966e-05
9.39259e-05
9.46727e-05
9.386e-05
9.36089e-05
8.26959e-05
8.40645e-05
9.46896e-05
9.39647e-05
9.36254e-05
8.29945e-05
8.38039e-05
8.48072e-05
9.34814e-05
9.35156e-05
9.28815e-05
9.27218e-05
8.37942e-05
8.4455e-05
9.34942e-05
9.36422e-05
9.28944e-05
9.27199e-05
9.33042e-05
9.27593e-05
9.28297e-05
8.41402e-05
8.43922e-05
9.33202e-05
9.27543e-05
9.28446e-05
8.46158e-05
8.49336e-05
8.62028e-05
9.26225e-05
9.26444e-05
9.24581e-05
9.25662e-05
8.47541e-05
8.66945e-05
9.26343e-05
9.25643e-05
9.24688e-05
9.24416e-05
9.26648e-05
9.26003e-05
9.24325e-05
8.45326e-05
8.62866e-05
9.2679e-05
9.24732e-05
9.24445e-05
8.62424e-05
8.65571e-05
8.81027e-05
9.23833e-05
9.25173e-05
9.25044e-05
9.23952e-05
8.68903e-05
8.79124e-05
9.23943e-05
9.23785e-05
9.2511e-05
9.23892e-05
9.23953e-05
9.2428e-05
9.25046e-05
8.65133e-05
8.79586e-05
9.24069e-05
9.24202e-05
9.25137e-05
8.8184e-05
8.85503e-05
9.02004e-05
9.26349e-05
9.24976e-05
9.29574e-05
9.30121e-05
8.82386e-05
9.04282e-05
9.26431e-05
9.25741e-05
9.29653e-05
9.30851e-05
9.25891e-05
9.30428e-05
9.30075e-05
8.84413e-05
9.05997e-05
9.25989e-05
9.3114e-05
9.3018e-05
9.03257e-05
9.05921e-05
9.25894e-05
9.3199e-05
9.32359e-05
9.3858e-05
9.38894e-05
9.08117e-05
9.26463e-05
9.32066e-05
9.32543e-05
9.38639e-05
9.387e-05
9.31917e-05
9.39181e-05
9.39198e-05
9.0873e-05
9.26027e-05
9.32015e-05
9.38975e-05
9.39273e-05
9.26554e-05
9.29396e-05
9.52054e-05
9.41339e-05
9.41659e-05
9.52058e-05
9.51419e-05
9.30132e-05
9.50495e-05
9.41394e-05
9.41672e-05
9.52113e-05
9.51375e-05
9.41845e-05
9.51688e-05
9.52089e-05
9.30061e-05
9.50533e-05
9.41917e-05
9.51632e-05
9.52162e-05
9.51284e-05
9.56321e-05
9.76481e-05
9.55579e-05
9.54811e-05
9.67875e-05
9.67593e-05
9.54554e-05
9.76502e-05
9.55638e-05
9.54807e-05
9.67908e-05
9.67575e-05
9.55713e-05
9.67845e-05
9.67589e-05
9.54477e-05
9.76557e-05
9.55778e-05
9.67806e-05
9.67646e-05
9.76013e-05
9.81024e-05
0.000100222
9.72264e-05
9.72144e-05
9.86301e-05
9.86503e-05
9.81336e-05
0.000100276
9.72306e-05
9.72096e-05
9.86329e-05
9.86559e-05
9.72229e-05
9.86759e-05
9.86498e-05
9.81337e-05
0.000100282
9.72285e-05
9.86782e-05
9.86541e-05
0.000100259
0.000100714
0.000102924
9.91604e-05
9.91701e-05
0.000100802
0.00010077
0.000100744
0.000102895
9.91631e-05
9.9171e-05
0.000100804
0.000100773
9.91659e-05
0.000100793
0.00010078
0.000100749
0.000102892
9.91701e-05
0.000100794
0.000100784
0.000102872
0.000103361
0.000105592
0.000101348
0.000101334
0.000103123
0.000103114
0.000103359
0.000105594
0.000101351
0.000101337
0.000103124
0.000103116
0.000101333
0.000103137
0.00010315
0.000103358
0.000105598
0.000101336
0.000103137
0.000103153
0.000105648
0.0001061
0.000108318
0.000103758
0.000103738
0.000105689
0.000105673
0.000106082
0.000108319
0.000103759
0.000103744
0.00010569
0.000105676
0.000103786
0.000105696
0.000105681
0.000106088
0.000108315
0.000103788
0.000105696
0.000105683
0.000108281
0.000108788
0.000111024
0.000106341
0.000106327
0.000108373
0.000108369
0.000108794
0.00011104
0.000106343
0.000106328
0.000108374
0.000108368
0.000106332
0.000108391
0.000108393
0.000108787
0.000111034
0.000106334
0.000108388
0.000108395
0.000111063
0.000111521
0.000113773
0.000109076
0.000109069
0.00011122
0.000111197
0.000111531
0.000113751
0.000109077
0.00010907
0.000111221
0.000111206
0.000109096
0.000111219
0.000111226
0.000111527
0.000113766
0.000109098
0.000111225
0.000111227
0.000113764
0.00011426
0.000116467
0.000111947
0.000111928
0.000114156
0.000114147
0.000114247
0.000116474
0.000111949
0.00011194
0.000114158
0.000114146
0.000111953
0.000114168
0.000114157
0.000114263
0.000116461
0.000111954
0.000114165
0.000114159
0.000116461
0.000116946
0.0001192
0.000114899
0.000114888
0.000117184
0.000117177
0.000116948
0.000119202
0.000114901
0.000114885
0.000117186
0.000117182
0.000114903
0.000117197
0.000117196
0.000116935
0.000119206
0.000114905
0.000117201
0.000117198
0.000119208
0.000119688
0.000121839
0.000117961
0.000117952
0.000120278
0.000120272
0.000119689
0.000121857
0.000117963
0.000117955
0.00012028
0.000120273
0.000117971
0.000120292
0.000120291
0.000119688
0.000121854
0.000117972
0.000120293
0.000120292
0.000121848
0.000122308
0.000124533
0.000121053
0.000121054
0.000123424
0.000123402
0.00012233
0.000124495
0.000121056
0.000121055
0.000123426
0.000123406
0.000121065
0.000123421
0.000123428
0.000122329
0.0001245
0.000121067
0.000123425
0.00012343
0.000124531
0.000125003
0.000127159
0.000124221
0.000124197
0.000126612
0.000126613
0.000124972
0.000127183
0.000124225
0.000124203
0.000126615
0.000126613
0.00012423
0.000126632
0.000126632
0.000124979
0.000127174
0.000124231
0.000126633
0.000126634
0.000127168
0.000127623
0.000129761
0.000127412
0.000127411
0.000129808
0.000129794
0.000127631
0.000129754
0.000127416
0.00012741
0.000129811
0.000129795
0.000127425
0.000129813
0.000129812
0.000127621
0.000129757
0.000127428
0.000129814
0.000129814
0.000129769
0.000130201
0.000132272
0.000130602
0.000130589
0.000132977
0.000132978
0.000130204
0.000132285
0.000130606
0.000130593
0.000132981
0.000132981
0.000130611
0.000132997
0.00013299
0.000130209
0.000132284
0.000130613
0.000133002
0.000132994
0.000132268
0.000132714
0.00013489
0.000133771
0.000133773
0.000136185
0.00013617
0.000132723
0.000134871
0.000133775
0.000133773
0.000136188
0.000136166
0.000133782
0.000136188
0.000136192
0.000132717
0.000134866
0.000133785
0.000136186
0.000136196
0.0001349
0.000135331
0.000137322
0.000136994
0.000136978
0.000139372
0.00013937
0.000135317
0.000137331
0.000136998
0.000136975
0.000139377
0.000139371
0.000137004
0.000139388
0.000139384
0.000135313
0.000137333
0.000137007
0.000139392
0.000139389
0.000137321
0.00023473
0.000234746
0.000234729
0.000234729
0.000235117
0.000234798
0.000234701
0.000234727
0.000235118
0.000234798
0.000234727
0.000234701
0.000234867
0.000233566
0.000233566
0.000104651
3.87412e-05
0.000129118
3.98247e-05
2.16834e-05
2.28313e-05
0.000104643
3.87371e-05
0.000129114
3.98214e-05
0.000233973
0.000233973
0.000233973
0.000232935
0.000232935
0.000232935
0.000232935
0.000206196
9.36752e-05
0.000233969
0.000231994
0.000222614
8.72226e-05
0.000233611
2.16823e-05
2.28306e-05
0.00020619
0.000233969
9.36748e-05
0.000231994
0.000222622
0.000233611
8.72281e-05
4.78014e-05
4.77895e-05
0.000231345
4.40183e-05
4.40088e-05
7.2568e-05
4.24343e-05
8.14029e-05
4.37632e-05
2.47749e-05
2.54634e-05
7.25579e-05
4.24306e-05
8.13975e-05
4.37594e-05
0.000232532
0.000232532
0.000232532
0.000231084
0.000231084
0.000231083
0.000231084
0.00016749
7.94394e-05
0.000232081
0.000226097
0.000180211
7.45067e-05
0.000231376
2.47731e-05
2.54619e-05
0.000167486
0.000232081
7.94331e-05
0.000226096
0.000180204
0.000231375
7.45102e-05
3.91646e-05
3.91544e-05
0.000219593
3.6576e-05
3.65653e-05
5.62767e-05
4.55469e-05
6.11322e-05
4.64114e-05
2.60134e-05
2.61173e-05
5.6281e-05
4.55443e-05
6.11276e-05
4.6409e-05
0.000230516
0.000230515
0.000230515
0.000228543
0.000228543
0.000228541
0.000228542
0.0001386
6.74266e-05
0.000228643
0.000218231
0.000148066
6.35181e-05
0.000227537
2.60112e-05
2.61152e-05
0.000138596
0.000228643
6.74211e-05
0.000218228
0.000148057
0.000227534
6.35144e-05
3.32181e-05
3.32094e-05
0.000204613
3.19923e-05
3.19832e-05
4.69656e-05
4.75012e-05
4.99091e-05
4.80051e-05
2.60472e-05
2.59391e-05
4.69645e-05
4.74971e-05
4.99099e-05
4.80008e-05
0.000227799
0.000227797
0.000227798
0.000225328
0.000225329
0.000225326
0.000225327
0.000117548
5.8205e-05
0.000223721
0.00020942
0.000124602
5.54857e-05
0.00022231
2.60447e-05
2.59371e-05
0.000117545
0.000223719
5.82035e-05
0.000209415
0.000124596
0.000222306
5.5483e-05
3.06179e-05
3.061e-05
0.000189779
3.03049e-05
3.02972e-05
4.1429e-05
4.85826e-05
4.32441e-05
4.88413e-05
2.56755e-05
2.55197e-05
4.14277e-05
4.85813e-05
4.32444e-05
4.88388e-05
0.000224433
0.000224431
0.000224432
0.000221562
0.000221563
0.000221559
0.000221561
0.000102114
5.18774e-05
0.000217771
0.000200404
0.00010738
5.00774e-05
0.000216181
2.56728e-05
2.55177e-05
0.000102112
0.000217769
5.18761e-05
0.000200398
0.000107374
0.000216177
5.00745e-05
3.01889e-05
3.01842e-05
0.000176369
3.0372e-05
3.03651e-05
3.81562e-05
4.90912e-05
3.92428e-05
4.91984e-05
2.52379e-05
2.50937e-05
3.81553e-05
4.90905e-05
3.92428e-05
4.9197e-05
0.000220552
0.000220549
0.00022055
0.000217392
0.000217393
0.000217389
0.000217391
9.04973e-05
4.77393e-05
0.000211269
0.000191607
9.44611e-05
4.66141e-05
0.000209603
2.52352e-05
2.50918e-05
9.04972e-05
0.000211267
4.77373e-05
0.0001916
9.4454e-05
0.000209598
4.66123e-05
3.10047e-05
3.09974e-05
0.000164561
3.15059e-05
3.14963e-05
3.63737e-05
4.92759e-05
3.69396e-05
4.92955e-05
2.48488e-05
2.47323e-05
3.6373e-05
4.92711e-05
3.69391e-05
4.92914e-05
0.000216305
0.0002163
0.000216302
0.000212957
0.000212958
0.000212952
0.000212955
8.15895e-05
4.51684e-05
0.000204579
0.00018322
8.46732e-05
4.45541e-05
0.000202907
2.48464e-05
2.47304e-05
8.15902e-05
0.000204576
4.51673e-05
0.000183211
8.46663e-05
0.000202902
4.45511e-05
3.25966e-05
3.2593e-05
0.000154267
3.32892e-05
3.32825e-05
3.5677e-05
4.92937e-05
3.58217e-05
4.92823e-05
2.45349e-05
2.44466e-05
3.56745e-05
4.9287e-05
3.58197e-05
4.92795e-05
0.000211821
0.000211816
0.000211818
0.000208367
0.000208368
0.000208362
0.000208365
7.46495e-05
4.37717e-05
0.000197938
0.000175301
7.71188e-05
4.35246e-05
0.000196304
2.45329e-05
2.44447e-05
7.46471e-05
0.000197935
4.37684e-05
0.000175292
7.71103e-05
0.000196298
4.35221e-05
3.4593e-05
3.45964e-05
0.00014522
3.55696e-05
3.55661e-05
3.57585e-05
4.92604e-05
3.5645e-05
4.92436e-05
2.42944e-05
2.42287e-05
3.57607e-05
4.92503e-05
3.5633e-05
4.92422e-05
0.000207208
0.000207202
0.000207204
0.000203711
0.000203712
0.000203705
0.000203708
6.91779e-05
4.3237e-05
0.000191483
0.000167878
7.12071e-05
4.32385e-05
0.000189901
2.42925e-05
2.42267e-05
6.9181e-05
0.00019148
4.32422e-05
0.000167869
7.1196e-05
0.000189895
4.32309e-05
3.67576e-05
3.67573e-05
0.000137218
3.79879e-05
3.7981e-05
3.655e-05
4.92309e-05
3.62165e-05
4.92208e-05
2.41155e-05
2.40677e-05
3.65624e-05
4.92224e-05
3.62032e-05
4.92208e-05
0.000202546
0.000202539
0.000202542
0.000199049
0.00019905
0.000199043
0.000199047
6.48674e-05
4.33799e-05
0.00018524
0.000160909
6.65098e-05
4.35662e-05
0.000183717
2.41137e-05
2.40657e-05
6.48647e-05
0.000185237
4.33865e-05
0.000160901
6.651e-05
0.000183711
4.35615e-05
3.92561e-05
3.9253e-05
0.000130036
4.06365e-05
4.06363e-05
3.80814e-05
4.9222e-05
3.73949e-05
4.92296e-05
2.39854e-05
2.39527e-05
3.80728e-05
4.92174e-05
3.73184e-05
4.92229e-05
0.000197891
0.000197883
0.000197887
0.000194421
0.000194423
0.000194415
0.000194419
6.15133e-05
4.40558e-05
0.000179254
0.000154344
6.27568e-05
4.44171e-05
0.000177803
2.39839e-05
2.39501e-05
6.15115e-05
0.000179252
4.40576e-05
0.000154335
6.27533e-05
0.000177796
4.44111e-05
4.19776e-05
4.19778e-05
0.000123469
4.2899e-05
4.28932e-05
4.01138e-05
4.92399e-05
3.91542e-05
4.92547e-05
2.38945e-05
2.38704e-05
4.0148e-05
4.92362e-05
3.91004e-05
4.92509e-05
0.000193277
0.000193269
0.000193273
0.00018983
0.000189832
0.000189824
0.000189827
5.90075e-05
4.52119e-05
0.00017355
0.000148127
5.98589e-05
4.56491e-05
0.000172165
2.38917e-05
2.3869e-05
5.90052e-05
0.000173548
4.521e-05
0.000148117
5.98551e-05
0.000172158
4.56509e-05
4.42636e-05
4.42632e-05
0.000117367
4.54726e-05
4.5469e-05
4.26105e-05
4.92701e-05
4.14313e-05
4.92864e-05
2.38289e-05
2.38134e-05
4.26189e-05
4.92709e-05
4.14462e-05
4.92856e-05
0.000188684
0.000188676
0.00018868
0.000185277
0.000185279
0.00018527
0.000185275
5.7196e-05
4.6684e-05
0.000168097
0.000142215
5.7719e-05
4.72212e-05
0.00016677
2.38274e-05
2.38109e-05
5.71983e-05
0.000168095
4.66822e-05
0.000142208
5.77144e-05
0.000166763
4.72285e-05
4.69089e-05
4.69153e-05
0.000111641
4.74783e-05
4.74739e-05
4.55996e-05
4.93098e-05
4.41666e-05
4.93291e-05
2.37841e-05
2.3771e-05
4.5582e-05
4.9309e-05
4.42014e-05
4.93269e-05
0.000184154
0.000184147
0.000184152
0.000180815
0.000180822
0.00018081
0.000180815
5.60311e-05
4.84896e-05
0.000162863
0.000136589
5.63308e-05
4.90274e-05
0.000161585
2.37818e-05
2.37699e-05
5.60258e-05
0.000162861
4.8488e-05
0.000136583
5.63324e-05
0.000161579
4.90628e-05
4.85166e-05
4.85212e-05
0.000106383
5.01243e-05
5.01209e-05
4.87851e-05
4.93507e-05
4.73862e-05
4.93675e-05
2.37476e-05
2.37402e-05
4.87833e-05
4.93481e-05
4.73679e-05
4.93644e-05
0.00017972
0.000179709
0.000179714
0.000176442
0.000176448
0.000176439
0.000176453
5.54943e-05
5.05215e-05
0.000157815
0.000131173
5.56004e-05
5.09611e-05
0.00015658
2.37452e-05
2.37402e-05
5.54969e-05
0.000157813
5.04167e-05
0.000131187
5.55904e-05
0.000156574
5.10199e-05
5.07632e-05
5.07535e-05
0.000101996
5.15437e-05
5.15451e-05
5.22611e-05
4.93873e-05
5.07109e-05
4.94021e-05
2.37233e-05
2.3719e-05
5.2262e-05
4.93844e-05
5.07068e-05
4.93995e-05
0.000175382
0.00017537
0.000175378
0.00017213
0.000172151
0.000172137
0.000172136
5.56587e-05
5.25093e-05
0.000152934
0.000126321
5.55137e-05
5.34137e-05
0.000151739
2.37236e-05
2.37174e-05
5.56548e-05
0.000152932
5.24808e-05
0.000126278
5.55125e-05
0.000151732
5.34381e-05
5.28772e-05
5.28877e-05
9.831e-05
5.35066e-05
5.34925e-05
5.56959e-05
4.94187e-05
5.42071e-05
4.94323e-05
2.37036e-05
2.37013e-05
5.5713e-05
4.9416e-05
5.41924e-05
4.94298e-05
0.000171071
0.00017106
0.000171063
0.000167881
0.000167883
0.000167866
0.000167863
5.63786e-05
5.48386e-05
0.000148186
0.000121102
5.60687e-05
5.56355e-05
0.000147019
2.37041e-05
2.36968e-05
5.63778e-05
0.000148184
5.48702e-05
0.000121087
5.60603e-05
0.000147014
5.56174e-05
5.46118e-05
5.46079e-05
9.35739e-05
5.50469e-05
5.50431e-05
5.91257e-05
4.94505e-05
5.76719e-05
4.94597e-05
2.36888e-05
2.36813e-05
5.91293e-05
4.9448e-05
5.7664e-05
4.94572e-05
0.000166816
0.000166797
0.000166816
0.000163641
0.000163612
0.000163618
0.000163661
5.77027e-05
5.73537e-05
0.000143554
0.00011621
5.71931e-05
5.79937e-05
0.000142408
2.36858e-05
2.36789e-05
5.77014e-05
0.00014355
5.73076e-05
0.000116185
5.71834e-05
0.000142402
5.79268e-05
5.64405e-05
5.64382e-05
9.07792e-05
5.66836e-05
5.66838e-05
6.22894e-05
4.94762e-05
6.0848e-05
4.94929e-05
2.36705e-05
2.36682e-05
6.22846e-05
4.94733e-05
6.0874e-05
4.94901e-05
0.000162582
0.000162581
0.000162581
0.000159499
0.000159471
0.000159478
0.000159415
5.95124e-05
5.93917e-05
0.00013901
0.00011187
5.8843e-05
6.02377e-05
0.000137905
2.36675e-05
2.36655e-05
5.95215e-05
0.000139013
5.94453e-05
0.000111895
5.88476e-05
0.000137905
6.01546e-05
5.79274e-05
5.79273e-05
8.603e-05
5.78737e-05
5.78706e-05
6.51e-05
4.95037e-05
6.40017e-05
4.95099e-05
2.36514e-05
2.36498e-05
6.51478e-05
4.95011e-05
6.40047e-05
4.95077e-05
0.000158401
0.000158421
0.00015843
0.000155271
0.000155327
0.000155258
0.00015531
6.17249e-05
6.16679e-05
0.000134589
0.000107547
6.09361e-05
6.20437e-05
0.000133502
2.36518e-05
2.36465e-05
6.17545e-05
0.000134598
6.18625e-05
0.000107599
6.09269e-05
0.000133502
6.23156e-05
5.90802e-05
5.90831e-05
8.62316e-05
5.9556e-05
5.95617e-05
6.7875e-05
4.95316e-05
6.66796e-05
4.95404e-05
2.36407e-05
2.36392e-05
6.78515e-05
4.9529e-05
6.66349e-05
4.95385e-05
0.00015434
0.00015428
0.000154273
0.000151183
0.000151201
0.000151225
0.000151156
6.433e-05
6.38258e-05
0.000130331
0.000104596
6.34132e-05
6.45829e-05
0.000129298
2.36393e-05
2.36393e-05
6.42935e-05
0.000130309
6.34858e-05
0.000104512
6.33741e-05
0.000129289
6.46746e-05
6.01115e-05
6.00981e-05
8.28195e-05
6.09683e-05
6.09746e-05
7.00692e-05
4.95505e-05
6.90415e-05
4.95608e-05
2.3628e-05
2.36268e-05
7.00493e-05
4.95488e-05
6.90776e-05
4.95587e-05
0.000150148
0.000150164
0.000150115
0.000147077
0.000147037
0.000146988
0.00014699
6.71014e-05
6.58073e-05
0.000126173
0.000100784
6.61908e-05
6.65347e-05
0.000125143
2.36267e-05
2.36257e-05
6.71018e-05
0.000126192
6.58343e-05
0.000100817
6.62254e-05
0.000125138
6.66134e-05
6.11253e-05
6.11397e-05
8.0976e-05
6.1292e-05
6.128e-05
7.20112e-05
4.95708e-05
7.11747e-05
4.95841e-05
2.36165e-05
2.36158e-05
7.20083e-05
4.95691e-05
7.11858e-05
4.95827e-05
0.000146027
0.000145984
0.000146042
0.000143052
0.000143025
0.000142983
0.00014309
7.00334e-05
6.75911e-05
0.000122205
9.81261e-05
6.90022e-05
6.84668e-05
0.00012124
2.36148e-05
2.36118e-05
7.00294e-05
0.000122196
6.76629e-05
9.79529e-05
6.89964e-05
0.000121221
6.84543e-05
6.19702e-05
6.19943e-05
8.31927e-05
6.23512e-05
6.23357e-05
7.37836e-05
4.95908e-05
7.31134e-05
4.95969e-05
2.36058e-05
2.36019e-05
7.377e-05
4.95886e-05
7.31021e-05
4.95956e-05
0.000142034
0.000142014
0.000142114
0.000138998
0.000139011
0.000139044
0.000139092
7.30697e-05
6.95335e-05
0.000118524
9.58999e-05
7.20222e-05
7.02116e-05
0.000117618
2.36046e-05
2.35993e-05
7.3059e-05
0.000118522
6.94864e-05
9.6035e-05
7.20057e-05
0.000117617
7.02437e-05
6.28215e-05
6.28138e-05
8.3047e-05
6.35055e-05
6.35009e-05
7.53494e-05
4.96069e-05
7.46532e-05
4.96146e-05
2.35966e-05
2.35926e-05
7.53343e-05
4.96052e-05
7.46726e-05
4.9613e-05
0.000138068
0.000138096
0.000138115
0.000135232
0.000135248
0.000135267
0.000135191
7.60477e-05
7.11653e-05
0.000115105
9.43742e-05
7.49584e-05
7.19095e-05
0.000114305
2.35936e-05
2.359e-05
7.6042e-05
0.000115127
7.11212e-05
9.44786e-05
7.49736e-05
0.000114316
7.18714e-05
6.35037e-05
6.35094e-05
8.23684e-05
6.42786e-05
6.42723e-05
7.67055e-05
4.96204e-05
7.61265e-05
4.96284e-05
2.35865e-05
2.3582e-05
7.67036e-05
4.96186e-05
7.61345e-05
4.9627e-05
0.000134307
0.00013433
0.000134248
0.000131527
0.000131493
0.000131489
0.000131506
7.90146e-05
7.28693e-05
0.000112038
9.32295e-05
7.79083e-05
7.33849e-05
0.000111321
2.35844e-05
2.358e-05
7.90183e-05
0.000112057
7.28634e-05
9.33529e-05
7.79078e-05
0.000111331
7.34491e-05
6.42554e-05
6.42635e-05
8.36809e-05
6.49512e-05
6.49398e-05
7.79238e-05
4.96316e-05
7.73927e-05
4.96396e-05
2.3578e-05
2.35754e-05
7.79148e-05
4.96298e-05
7.74023e-05
4.9638e-05
0.000130605
0.000130583
0.000130611
0.000127988
0.00012803
0.000127983
0.000127982
8.1863e-05
7.42913e-05
0.000109308
9.26495e-05
8.07198e-05
7.49167e-05
0.000108702
2.35752e-05
2.35732e-05
8.18547e-05
0.000109313
7.4263e-05
9.25286e-05
8.07231e-05
0.00010869
7.49297e-05
6.50096e-05
6.50225e-05
8.54293e-05
6.54718e-05
6.5453e-05
7.9053e-05
4.96445e-05
7.85694e-05
4.96484e-05
2.35697e-05
2.35672e-05
7.90469e-05
4.96429e-05
7.85759e-05
4.96467e-05
0.000127182
0.000127134
0.000127139
0.000124672
0.000124661
0.000124645
0.000124672
8.46195e-05
7.57553e-05
0.000107031
9.2473e-05
8.34832e-05
7.62926e-05
0.000106519
2.35666e-05
2.35646e-05
8.46126e-05
0.000107022
7.57259e-05
9.2333e-05
8.34822e-05
0.000106501
7.62195e-05
6.57298e-05
6.57467e-05
8.7191e-05
6.60318e-05
6.60151e-05
8.00707e-05
4.96568e-05
7.96011e-05
4.96594e-05
2.3563e-05
2.3562e-05
8.0076e-05
4.96552e-05
7.96008e-05
4.96579e-05
0.000123871
0.000123871
0.000123895
0.000121622
0.000121632
0.000121649
0.000121628
8.72215e-05
7.70045e-05
0.000105127
9.26761e-05
8.60918e-05
7.76277e-05
0.000104729
2.35616e-05
2.35599e-05
8.72289e-05
0.000105138
7.70445e-05
9.27967e-05
8.60857e-05
0.000104739
7.76673e-05
6.64051e-05
6.64141e-05
8.92346e-05
6.65952e-05
6.65958e-05
8.10084e-05
4.96668e-05
8.0586e-05
4.96711e-05
2.35576e-05
2.35564e-05
8.1005e-05
4.96651e-05
8.05897e-05
4.96694e-05
0.000120906
0.000120915
0.000120896
0.000118819
0.000118839
0.000118821
0.000118832
8.9732e-05
7.83167e-05
0.000103712
9.34859e-05
8.86302e-05
7.88948e-05
0.000103428
2.3555e-05
2.3554e-05
8.97287e-05
0.000103729
7.83007e-05
9.34618e-05
8.86314e-05
0.000103429
7.88689e-05
6.69681e-05
6.69714e-05
9.14644e-05
6.71743e-05
6.71762e-05
8.18719e-05
4.96759e-05
8.14928e-05
4.96822e-05
2.35528e-05
2.35523e-05
8.18749e-05
4.96743e-05
8.14926e-05
4.96806e-05
0.000118184
0.000118169
0.000118178
0.000116357
0.000116347
0.000116339
0.000116362
9.21031e-05
7.94746e-05
0.000102717
9.45155e-05
9.10452e-05
8.00807e-05
0.000102537
2.35507e-05
2.355e-05
9.21067e-05
0.00010272
7.94938e-05
9.45223e-05
9.1039e-05
0.000102536
8.00851e-05
6.74884e-05
6.74909e-05
9.38613e-05
6.76936e-05
6.76952e-05
8.27002e-05
4.96873e-05
8.23515e-05
4.96928e-05
2.3549e-05
2.35493e-05
8.26992e-05
4.96856e-05
8.2352e-05
4.96911e-05
0.00011577
0.000115763
0.000115793
0.000114218
0.000114203
0.000114196
0.000114208
9.43879e-05
8.0612e-05
0.00010216
9.58938e-05
9.33703e-05
8.11574e-05
0.000102087
2.35467e-05
2.35471e-05
9.43869e-05
0.000102168
8.06017e-05
9.58979e-05
9.33665e-05
0.00010209
8.11687e-05
6.80335e-05
6.80332e-05
9.63717e-05
6.81507e-05
6.81532e-05
8.34844e-05
4.96996e-05
8.31454e-05
4.97044e-05
2.35471e-05
2.3547e-05
8.34855e-05
4.96979e-05
8.31479e-05
4.97029e-05
0.000113727
0.000113719
0.000113729
0.000112409
0.00011242
0.000112415
0.000112415
9.65831e-05
8.17772e-05
0.000102044
9.7695e-05
9.55898e-05
8.22326e-05
0.000102081
2.35448e-05
2.35448e-05
9.65813e-05
0.000102052