/*--------------------------------*- C++ -*----------------------------------*\
| =========                 |                                                 |
| \\      /  F ield         | OpenFOAM: The Open Source CFD Toolbox           |
|  \\    /   O peration     | Version:  v2012                                 |
|   \\  /    A nd           | Website:  www.openfoam.com                      |
|    \\/     M anipulation  |                                                 |
\*---------------------------------------------------------------------------*/
FoamFile
{
    version     2.0;
    format      ascii;
    class       volScalarField;
    location    "875";
    object      p;
}
// * * * * * * * * * * * * * * * * * * * * * * * * * * * * * * * * * * * * * //

dimensions      [0 2 -2 0 0 0 0];


internalField   nonuniform List<scalar> 
85864
(
0.00360595
0.00360628
0.00360628
0.00360933
0.0035506
0.00355101
0.00355101
0.00355401
0.00349984
0.00349981
0.00349981
0.00350257
0.00344745
0.00344747
0.00344747
0.00345024
0.0033961
0.00339611
0.00339611
0.00339886
0.00334612
0.00334613
0.00334612
0.00334885
0.0032976
0.00329761
0.00329761
0.0033003
0.00325037
0.00325037
0.00325039
0.00325304
0.00320423
0.00320426
0.00320427
0.00320686
0.00315901
0.00315902
0.00315903
0.00316161
0.0031145
0.00311451
0.00311452
0.0031171
0.00307059
0.0030706
0.00307058
0.00307314
0.00302725
0.00302717
0.0030272
0.00302976
0.00298436
0.00298438
0.00298438
0.00298683
0.00294192
0.00294191
0.0029419
0.00294446
0.00289975
0.00289983
0.00289977
0.00290224
0.00285784
0.00285771
0.00285771
0.0028603
0.0028163
0.00281624
0.00281629
0.00281884
0.00277532
0.00277531
0.00277536
0.00277758
0.00273458
0.00273455
0.00273457
0.00273726
0.00269419
0.00269415
0.00269428
0.00269652
0.00265401
0.0026539
0.0026538
0.00265628
0.00261413
0.00261407
0.00261408
0.00261669
0.00257447
0.00257437
0.00257444
0.00257683
0.0025351
0.00253506
0.00253505
0.00253734
0.00249585
0.00249579
0.00249578
0.00249819
0.00245685
0.00245685
0.00245683
0.00245916
0.00241805
0.00241799
0.00241799
0.00242035
0.00237945
0.00237944
0.00237944
0.00238174
0.00234103
0.002341
0.00234099
0.00234331
0.0023028
0.00230276
0.00230276
0.00230506
0.00226473
0.0022647
0.0022647
0.00226697
0.00222683
0.0022268
0.0022268
0.00222907
0.00218909
0.00218907
0.00218907
0.00219131
0.00215151
0.0021515
0.0021515
0.00215373
0.00211409
0.00211407
0.00211407
0.00211627
0.00207681
0.0020768
0.00207679
0.00207899
0.00203967
0.00203965
0.00203965
0.00204182
0.00200267
0.00200265
0.00200265
0.0020048
0.0019658
0.00196577
0.00196577
0.00196792
0.00192904
0.00192901
0.00192901
0.00193114
0.00189241
0.00189236
0.00189236
0.00189449
0.00185589
0.00185584
0.00185584
0.00185795
0.00181947
0.00181941
0.00181941
0.00182152
0.00178315
0.00178309
0.00178309
0.00178518
0.00174694
0.00174686
0.00174686
0.00174896
0.00171079
0.00171071
0.00171072
0.00171279
0.00361936
0.00361958
0.00361958
0.00361936
0.00361958
0.00361958
0.00362035
0.00362035
0.00362035
0.00362035
0.00361958
0.00361958
0.00361936
0.00361959
0.00361959
0.00361936
0.00360933
0.00356058
0.00360628
0.00360628
0.00356286
0.00356286
0.00360933
0.00356057
0.00360628
0.00360628
0.00356285
0.00356286
0.00360628
0.00356285
0.00356285
0.00360933
0.00356058
0.00360628
0.00356285
0.00356285
0.00356057
0.00355401
0.0035095
0.00355102
0.00355102
0.00351294
0.00351294
0.00355401
0.0035095
0.00355101
0.00355101
0.00351294
0.00351294
0.00355102
0.00351294
0.00351294
0.00355401
0.00350949
0.00355101
0.00351294
0.00351294
0.0035095
0.00350257
0.00345712
0.00349982
0.00349982
0.00346048
0.00346048
0.00350257
0.00345712
0.00349981
0.00349982
0.00346048
0.00346049
0.00349981
0.00346048
0.00346048
0.00350257
0.00345712
0.00349981
0.00346048
0.00346048
0.00345712
0.00345024
0.00340557
0.00344747
0.00344747
0.00340884
0.00340883
0.00345024
0.00340557
0.00344747
0.00344747
0.00340884
0.00340884
0.00344747
0.00340883
0.00340883
0.00345024
0.00340557
0.00344747
0.00340884
0.00340883
0.00340557
0.00339886
0.00335536
0.00339611
0.00339611
0.00335849
0.0033585
0.00339886
0.00335536
0.00339611
0.00339611
0.0033585
0.00335849
0.00339611
0.0033585
0.00335849
0.00339886
0.00335536
0.00339611
0.0033585
0.00335849
0.00335535
0.00334886
0.0033066
0.00334614
0.00334613
0.00330961
0.00330962
0.00334885
0.0033066
0.00334613
0.00334613
0.0033096
0.00330961
0.00334613
0.00330962
0.00330962
0.00334885
0.0033066
0.00334613
0.00330962
0.00330962
0.00330659
0.0033003
0.00325918
0.00329762
0.00329761
0.00326209
0.0032621
0.00330029
0.00325917
0.00329763
0.00329762
0.00326207
0.00326208
0.00329761
0.0032621
0.00326209
0.00330029
0.00325916
0.00329761
0.00326208
0.00326209
0.00325917
0.00325304
0.00321286
0.00325038
0.00325037
0.00321571
0.00321569
0.00325302
0.00321287
0.00325041
0.00325039
0.00321569
0.00321568
0.00325038
0.00321569
0.00321573
0.00325303
0.00321288
0.00325038
0.00321568
0.00321573
0.00321286
0.00320687
0.00316749
0.00320423
0.00320426
0.00317029
0.00317028
0.00320689
0.0031675
0.00320425
0.00320429
0.00317027
0.00317026
0.00320423
0.00317028
0.00317027
0.0032069
0.0031675
0.00320423
0.00317027
0.00317028
0.00316748
0.00316162
0.00312287
0.00315901
0.00315902
0.00312558
0.00312561
0.00316162
0.00312286
0.00315903
0.00315903
0.00312557
0.00312559
0.00315901
0.00312561
0.00312558
0.00316163
0.00312287
0.00315901
0.0031256
0.00312558
0.00312288
0.0031171
0.00307887
0.00311453
0.0031145
0.00308151
0.00308158
0.00311709
0.00307885
0.00311454
0.00311453
0.00308152
0.00308157
0.00311454
0.00308157
0.00308158
0.00311709
0.00307883
0.00311454
0.00308158
0.00308158
0.00307885
0.00307319
0.00303544
0.00307063
0.0030706
0.00303808
0.00303804
0.00307312
0.0030353
0.00307063
0.00307059
0.00303809
0.00303801
0.00307057
0.00303803
0.00303803
0.00307312
0.00303533
0.00307057
0.00303801
0.00303804
0.0030354
0.00302979
0.00299242
0.00302729
0.00302717
0.00299504
0.00299504
0.00302971
0.00299242
0.00302729
0.00302721
0.00299504
0.00299507
0.00302729
0.00299504
0.00299508
0.00302974
0.00299242
0.00302729
0.00299506
0.00299508
0.00299238
0.00298687
0.00294994
0.00298433
0.00298439
0.00295246
0.00295256
0.00298684
0.00294984
0.00298432
0.00298439
0.00295246
0.00295256
0.00298429
0.00295256
0.00295253
0.00298684
0.00294989
0.00298429
0.00295257
0.00295253
0.00294996
0.00294443
0.00290776
0.00294192
0.00294189
0.00291025
0.0029105
0.00294434
0.00290794
0.00294192
0.0029419
0.00291025
0.00291041
0.00294194
0.00291051
0.0029103
0.0029444
0.00290788
0.00294194
0.00291041
0.0029103
0.00290778
0.00290228
0.00286577
0.00289979
0.00289983
0.00286827
0.0028682
0.0029024
0.00286562
0.00289978
0.00289977
0.00286827
0.00286815
0.00289972
0.00286819
0.00286814
0.00290235
0.00286563
0.00289972
0.00286814
0.00286813
0.00286569
0.00286035
0.00282413
0.00285786
0.00285772
0.00282664
0.00282657
0.00286019
0.00282406
0.00285786
0.00285772
0.00282664
0.00282659
0.00285782
0.00282658
0.00282669
0.00286019
0.0028241
0.00285782
0.00282659
0.00282669
0.00282428
0.00281874
0.00278325
0.00281629
0.00281623
0.0027856
0.00278556
0.00281868
0.00278316
0.0028163
0.00281629
0.0027856
0.00278559
0.00281634
0.00278554
0.00278535
0.00281872
0.00278319
0.00281635
0.00278557
0.00278536
0.00278283
0.00277786
0.00274207
0.00277533
0.00277532
0.00274453
0.00274466
0.00277781
0.0027422
0.00277533
0.00277537
0.00274453
0.00274465
0.0027752
0.00274469
0.00274492
0.00277784
0.00274219
0.0027752
0.00274468
0.00274492
0.00274262
0.00273687
0.00270206
0.00273448
0.00273453
0.00270441
0.00270439
0.00273697
0.00270198
0.00273447
0.00273455
0.00270441
0.00270443
0.00273469
0.00270437
0.00270412
0.00273694
0.00270215
0.00273469
0.00270442
0.00270413
0.00270178
0.00269671
0.00266165
0.00269421
0.00269416
0.00266392
0.00266392
0.00269663
0.00266151
0.00269421
0.00269429
0.00266392
0.00266382
0.00269408
0.00266391
0.00266386
0.00269685
0.00266137
0.00269409
0.00266381
0.00266385
0.00266146
0.00265645
0.00262173
0.00265399
0.00265391
0.002624
0.00262405
0.00265631
0.00262172
0.00265398
0.00265381
0.002624
0.00262406
0.00265387
0.00262406
0.0026242
0.00265617
0.00262174
0.00265387
0.00262407
0.0026242
0.00262194
0.00261652
0.00258185
0.00261406
0.00261406
0.00258421
0.00258427
0.00261652
0.00258196
0.00261406
0.00261407
0.00258422
0.00258432
0.00261418
0.00258428
0.00258431
0.00261654
0.00258208
0.00261418
0.00258433
0.00258432
0.00258201
0.00257674
0.00254271
0.00257433
0.00257437
0.00254495
0.00254489
0.0025768
0.00254268
0.00257434
0.00257444
0.00254495
0.00254486
0.0025744
0.00254488
0.00254478
0.00257691
0.00254264
0.0025744
0.00254485
0.00254478
0.00254247
0.00253754
0.00250329
0.00253506
0.00253507
0.00250556
0.00250555
0.00253753
0.0025033
0.00253506
0.00253506
0.00250556
0.00250555
0.00253495
0.00250555
0.0025056
0.0025375
0.00250329
0.00253495
0.00250554
0.0025056
0.00250332
0.00249817
0.00246424
0.00249577
0.00249579
0.00246651
0.00246656
0.00249818
0.00246436
0.00249577
0.00249577
0.00246651
0.00246653
0.00249578
0.00246656
0.00246655
0.00249816
0.00246432
0.00249578
0.00246653
0.00246654
0.00246427
0.00245914
0.00242542
0.00245677
0.00245685
0.00242769
0.00242766
0.00245925
0.00242542
0.00245676
0.00245683
0.00242769
0.00242767
0.00245678
0.00242766
0.00242769
0.00245922
0.00242542
0.00245678
0.00242767
0.00242769
0.00242543
0.00242034
0.00238682
0.00241798
0.00241799
0.00238906
0.00238905
0.00242034
0.00238685
0.00241798
0.00241799
0.00238906
0.00238908
0.00241798
0.00238905
0.00238905
0.00242035
0.00238688
0.00241798
0.00238908
0.00238905
0.00238681
0.00238175
0.00234839
0.00237941
0.00237943
0.00235059
0.00235058
0.00238179
0.00234837
0.00237941
0.00237944
0.00235059
0.00235056
0.0023794
0.00235058
0.00235059
0.00238181
0.00234835
0.0023794
0.00235056
0.00235059
0.00234836
0.00234334
0.0023101
0.002341
0.002341
0.0023123
0.0023123
0.00234332
0.00231009
0.002341
0.00234099
0.0023123
0.0023123
0.00234099
0.0023123
0.0023123
0.00234331
0.0023101
0.00234099
0.0023123
0.0023123
0.00231008
0.00230508
0.00227198
0.00230277
0.00230276
0.00227419
0.00227419
0.00230507
0.00227199
0.00230277
0.00230276
0.00227419
0.00227419
0.00230275
0.00227419
0.0022742
0.00230507
0.00227199
0.00230275
0.00227419
0.0022742
0.00227198
0.00226697
0.00223405
0.00226469
0.0022647
0.00223626
0.00223627
0.00226698
0.00223406
0.00226469
0.0022647
0.00223626
0.00223626
0.00226469
0.00223627
0.00223627
0.00226699
0.00223406
0.00226469
0.00223626
0.00223627
0.00223407
0.00222906
0.0021963
0.0022268
0.0022268
0.0021985
0.00219849
0.00222906
0.00219629
0.0022268
0.0022268
0.0021985
0.00219849
0.00222681
0.00219849
0.00219849
0.00222907
0.00219629
0.00222681
0.00219849
0.00219849
0.00219629
0.00219132
0.00215868
0.00218908
0.00218907
0.00216087
0.00216088
0.00219131
0.00215868
0.00218908
0.00218907
0.00216087
0.00216088
0.00218907
0.00216088
0.00216088
0.00219131
0.00215868
0.00218907
0.00216088
0.00216088
0.00215869
0.00215372
0.00212123
0.0021515
0.0021515
0.00212342
0.00212342
0.00215372
0.00212123
0.0021515
0.0021515
0.00212342
0.00212342
0.00215151
0.00212342
0.00212342
0.00215372
0.00212123
0.00215151
0.00212342
0.00212342
0.00212122
0.00211628
0.00208391
0.00211407
0.00211408
0.0020861
0.0020861
0.00211628
0.00208392
0.00211407
0.00211407
0.0020861
0.0020861
0.00211407
0.0020861
0.0020861
0.00211628
0.00208391
0.00211407
0.0020861
0.0020861
0.00208392
0.00207898
0.00204675
0.00207679
0.00207679
0.00204893
0.00204893
0.00207898
0.00204675
0.00207679
0.00207679
0.00204893
0.00204893
0.0020768
0.00204893
0.00204893
0.00207898
0.00204675
0.0020768
0.00204893
0.00204893
0.00204674
0.00204183
0.00200972
0.00203966
0.00203965
0.00201189
0.00201189
0.00204182
0.00200972
0.00203966
0.00203965
0.00201189
0.00201189
0.00203965
0.00201189
0.00201189
0.00204182
0.00200972
0.00203965
0.00201189
0.00201189
0.00200972
0.0020048
0.00197281
0.00200265
0.00200265
0.00197498
0.00197498
0.00200481
0.00197281
0.00200265
0.00200265
0.00197498
0.00197498
0.00200265
0.00197498
0.00197498
0.0020048
0.00197282
0.00200265
0.00197498
0.00197498
0.00197282
0.00196792
0.00193603
0.00196577
0.00196577
0.00193819
0.00193819
0.00196792
0.00193603
0.00196577
0.00196577
0.00193819
0.00193819
0.00196577
0.00193819
0.00193819
0.00196792
0.00193603
0.00196577
0.00193819
0.00193819
0.00193603
0.00193114
0.00189937
0.00192901
0.00192901
0.00190152
0.00190152
0.00193114
0.00189937
0.00192901
0.00192901
0.00190152
0.00190152
0.00192901
0.00190152
0.00190151
0.00193114
0.00189937
0.00192901
0.00190152
0.00190151
0.00189937
0.00189449
0.00186282
0.00189237
0.00189237
0.00186496
0.00186496
0.00189449
0.00186283
0.00189237
0.00189236
0.00186496
0.00186496
0.00189237
0.00186496
0.00186496
0.00189449
0.00186283
0.00189237
0.00186496
0.00186496
0.00186282
0.00185795
0.00182638
0.00185584
0.00185584
0.00182851
0.00182851
0.00185796
0.00182637
0.00185584
0.00185584
0.00182851
0.00182851
0.00185584
0.00182851
0.00182851
0.00185796
0.00182637
0.00185584
0.00182851
0.00182851
0.00182638
0.00182152
0.00179003
0.00181941
0.00181941
0.00179216
0.00179216
0.00182151
0.00179003
0.00181941
0.00181941
0.00179216
0.00179216
0.00181941
0.00179216
0.00179216
0.00182152
0.00179003
0.00181941
0.00179216
0.00179216
0.00179003
0.00178518
0.0017538
0.00178308
0.00178309
0.00175591
0.00175591
0.00178518
0.00175379
0.00178308
0.00178309
0.00175591
0.00175591
0.00178308
0.00175591
0.00175591
0.00178518
0.00175379
0.00178308
0.00175591
0.00175591
0.0017538
0.00174896
0.00171763
0.00174687
0.00174686
0.00171975
0.00171975
0.00174895
0.00171764
0.00174687
0.00174686
0.00171975
0.00171975
0.00174687
0.00171975
0.00171975
0.00174895
0.00171764
0.00174687
0.00171975
0.00171975
0.00171763
0.00171279
0.00168155
0.00171071
0.00171071
0.00168365
0.00168365
0.0017128
0.00168154
0.00171071
0.00171072
0.00168365
0.00168365
0.00171071
0.00168365
0.00168365
0.0017128
0.00168154
0.00171071
0.00168365
0.00168365
0.00168155
0.00362774
0.0036375
0.0036323
0.0036323
0.00365468
0.00364146
0.00367007
0.00363551
0.00365468
0.00364147
0.00363551
0.00367007
0.00364603
0.00367381
0.00367381
0.00358309
0.00360224
0.00361143
0.00357517
0.00357591
0.00357868
0.00358307
0.00360222
0.00361142
0.00357515
0.00360595
0.00360595
0.00360595
0.00356255
0.00356255
0.00356255
0.00356255
0.00358059
0.00360642
0.00360635
0.00358942
0.00360944
0.0035795
0.0035903
0.00357601
0.00357868
0.0035806
0.00360635
0.00360643
0.00358942
0.00360944
0.0035903
0.00357949
0.00361229
0.00361228
0.00358382
0.00357913
0.00357913
0.00353646
0.00355574
0.0035571
0.003535
0.00355465
0.00353456
0.00353646
0.00355573
0.0035571
0.00353499
0.0035506
0.00355059
0.00355059
0.00351301
0.00351301
0.003513
0.00351301
0.00353505
0.00355582
0.00355059
0.00353873
0.00355461
0.00353559
0.00353846
0.00355465
0.00353455
0.00353505
0.00355059
0.00355581
0.00353872
0.0035546
0.00353845
0.00353559
0.00355683
0.00355683
0.00353527
0.00353592
0.00353592
0.0034842
0.003503
0.00350407
0.00348317
0.00350264
0.00348289
0.0034842
0.003503
0.00350407
0.00348317
0.00349984
0.00349984
0.00349984
0.00346046
0.00346046
0.00346046
0.00346046
0.0034833
0.0035034
0.00349972
0.00348667
0.00350284
0.00348366
0.00348658
0.00350264
0.00348289
0.0034833
0.00349972
0.0035034
0.00348667
0.00350284
0.00348658
0.00348366
0.00350364
0.00350364
0.00348329
0.00348372
0.00348372
0.00343167
0.00345032
0.00345119
0.0034309
0.00345012
0.00343072
0.00343167
0.00345032
0.00345119
0.0034309
0.00344746
0.00344745
0.00344746
0.00340883
0.00340883
0.00340883
0.00340882
0.00343116
0.00345073
0.00344742
0.00343452
0.00345045
0.00343135
0.00343448
0.00345012
0.00343072
0.00343116
0.00344742
0.00345073
0.00343452
0.00345045
0.00343448
0.00343135
0.00345077
0.00345077
0.0034312
0.00343128
0.00343128
0.00338047
0.00339883
0.00339946
0.00337991
0.00339868
0.00337978
0.00338047
0.00339882
0.00339946
0.00337991
0.0033961
0.0033961
0.0033961
0.00335848
0.00335848
0.00335848
0.00335848
0.0033802
0.00339918
0.00339608
0.00338348
0.00339901
0.00338031
0.00338345
0.00339868
0.00337978
0.0033802
0.00339608
0.00339918
0.00338348
0.003399
0.00338345
0.0033803
0.00339916
0.00339916
0.00338027
0.00338022
0.00338022
0.00333082
0.00334878
0.00334923
0.00333043
0.00334866
0.0033303
0.00333082
0.00334878
0.00334923
0.00333042
0.00334612
0.00334612
0.00334612
0.0033096
0.0033096
0.0033096
0.0033096
0.00333071
0.00334907
0.0033461
0.00333388
0.00334895
0.00333077
0.00333385
0.00334866
0.00333031
0.00333071
0.0033461
0.00334907
0.00333388
0.00334896
0.00333385
0.00333077
0.00334906
0.00334906
0.0033308
0.00333069
0.00333069
0.00328265
0.0033002
0.00330052
0.00328238
0.0033001
0.00328226
0.00328265
0.0033002
0.00330053
0.00328238
0.0032976
0.0032976
0.0032976
0.00326206
0.00326207
0.00326206
0.00326207
0.00328262
0.00330046
0.00329758
0.0032857
0.00330037
0.00328269
0.00328566
0.00330011
0.00328228
0.00328263
0.00329758
0.00330046
0.00328569
0.00330037
0.00328566
0.00328269
0.00330045
0.00330045
0.00328273
0.00328261
0.00328261
0.00323576
0.00325294
0.00325317
0.00323554
0.00325286
0.00323547
0.00323575
0.00325295
0.00325318
0.00323556
0.00325036
0.00325037
0.00325036
0.00321568
0.00321568
0.00321567
0.00321569
0.00323579
0.00325317
0.00325035
0.00323877
0.00325309
0.00323584
0.00323874
0.00325285
0.00323548
0.00323579
0.00325036
0.00325317
0.00323876
0.0032531
0.00323873
0.00323585
0.00325316
0.00325316
0.00323588
0.00323577
0.00323577
0.00318993
0.00320678
0.00320696
0.00318976
0.00320669
0.00318968
0.00318992
0.00320678
0.00320697
0.00318977
0.00320424
0.00320424
0.00320423
0.00317024
0.00317025
0.00317024
0.00317024
0.00319
0.00320701
0.00320421
0.00319289
0.00320693
0.00319004
0.00319286
0.00320669
0.00318967
0.00319
0.00320422
0.00320701
0.00319287
0.00320693
0.00319285
0.00319005
0.00320699
0.00320699
0.00319008
0.00318993
0.00318993
0.00314493
0.00316153
0.00316168
0.00314479
0.00316144
0.00314473
0.00314493
0.00316154
0.00316169
0.0031448
0.003159
0.00315901
0.003159
0.00312556
0.00312557
0.00312557
0.00312556
0.00314503
0.00316175
0.00315899
0.00314785
0.00316168
0.00314507
0.00314782
0.00316142
0.00314471
0.00314503
0.00315899
0.00316175
0.00314783
0.00316168
0.00314781
0.00314508
0.00316171
0.00316171
0.0031451
0.00314496
0.00314496
0.00310064
0.00311701
0.00311713
0.0031005
0.00311695
0.00310042
0.00310062
0.00311701
0.00311715
0.00310051
0.00311449
0.0031145
0.0031145
0.00308152
0.00308153
0.00308153
0.00308153
0.00310075
0.00311721
0.00311449
0.00310351
0.00311715
0.00310075
0.00310348
0.0031169
0.00310046
0.00310074
0.00311449
0.00311722
0.00310349
0.00311715
0.00310348
0.00310075
0.00311715
0.00311715
0.00310078
0.00310066
0.00310066
0.0030569
0.00307307
0.0030732
0.00305674
0.00307301
0.00305668
0.00305689
0.00307307
0.0030732
0.00305674
0.0030706
0.00307059
0.00307058
0.00303804
0.00303801
0.00303801
0.00303802
0.00305704
0.00307325
0.00307059
0.0030597
0.00307322
0.00305705
0.00305971
0.00307303
0.00305669
0.00305703
0.00307058
0.00307324
0.00305972
0.00307322
0.00305971
0.00305704
0.00307324
0.00307324
0.00305702
0.00305687
0.00305687
0.0030137
0.00302969
0.0030298
0.00301357
0.00302956
0.00301349
0.0030137
0.00302968
0.0030298
0.00301357
0.00302722
0.00302722
0.00302725
0.00299503
0.00299503
0.00299503
0.00299504
0.00301387
0.00302982
0.00302723
0.00301653
0.00302984
0.00301382
0.00301649
0.00302958
0.0030135
0.00301386
0.00302724
0.00302982
0.00301655
0.00302985
0.00301648
0.00301383
0.00302974
0.00302974
0.00301392
0.0030137
0.0030137
0.00297096
0.00298676
0.00298689
0.00297085
0.00298667
0.00297077
0.00297096
0.00298676
0.00298689
0.00297085
0.00298437
0.00298436
0.00298435
0.00295249
0.00295248
0.0029525
0.00295251
0.00297115
0.0029869
0.00298436
0.00297371
0.00298696
0.00297109
0.00297373
0.00298668
0.0029707
0.00297114
0.00298435
0.00298689
0.00297366
0.00298695
0.00297372
0.00297108
0.00298689
0.00298689
0.00297121
0.00297082
0.00297082
0.00292863
0.00294429
0.00294442
0.00292852
0.0029442
0.00292842
0.00292865
0.00294429
0.00294442
0.00292852
0.0029419
0.00294192
0.00294196
0.00291027
0.00291038
0.00291035
0.0029103
0.00292888
0.00294438
0.00294193
0.00293135
0.00294451
0.00292877
0.00293142
0.00294422
0.00292847
0.0029289
0.00294194
0.00294444
0.00293142
0.00294453
0.00293144
0.00292879
0.0029444
0.00294441
0.00292906
0.00292859
0.00292859
0.00288653
0.00290214
0.00290228
0.0028864
0.00290219
0.00288643
0.00288652
0.00290214
0.00290227
0.00288639
0.00289978
0.00289976
0.00289972
0.00286827
0.00286822
0.0028682
0.00286821
0.00288675
0.00290247
0.00289979
0.00288918
0.00290242
0.00288672
0.00288923
0.00290217
0.00288641
0.00288674
0.00289978
0.00290245
0.00288922
0.0029024
0.00288922
0.00288668
0.00290244
0.00290243
0.0028865
0.00288657
0.00288657
0.00284472
0.00286021
0.0028603
0.00284463
0.00286016
0.00284456
0.00284472
0.00286021
0.0028603
0.00284463
0.00285778
0.00285778
0.00285781
0.00282664
0.00282661
0.00282663
0.00282669
0.00284496
0.00286034
0.00285781
0.00284736
0.00286039
0.00284484
0.00284742
0.00286014
0.00284454
0.00284496
0.00285781
0.00286032
0.00284739
0.00286039
0.00284742
0.00284483
0.00286026
0.00286026
0.00284495
0.0028447
0.0028447
0.00280336
0.00281865
0.00281876
0.00280325
0.00281856
0.00280323
0.00280337
0.00281865
0.00281877
0.00280325
0.00281629
0.00281632
0.00281633
0.00278559
0.00278555
0.00278556
0.00278543
0.0028036
0.00281876
0.00281633
0.00280599
0.00281889
0.00280345
0.00280603
0.00281863
0.00280321
0.00280362
0.00281634
0.00281876
0.00280602
0.00281891
0.00280604
0.00280349
0.00281885
0.00281885
0.00280339
0.00280346
0.00280346
0.0027624
0.00277767
0.00277773
0.00276225
0.00277762
0.00276223
0.00276241
0.00277767
0.00277775
0.00276226
0.00277531
0.00277532
0.00277527
0.00274464
0.00274472
0.0027447
0.00274486
0.00276272
0.0027777
0.00277531
0.00276506
0.00277782
0.00276258
0.00276511
0.00277764
0.00276228
0.00276272
0.00277532
0.00277773
0.00276507
0.00277783
0.00276512
0.0027626
0.00277755
0.00277755
0.00276286
0.00276223
0.00276223
0.00272186
0.00273678
0.00273692
0.00272181
0.00273684
0.00272178
0.00272184
0.00273678
0.00273691
0.0027218
0.00273463
0.00273458
0.00273465
0.00270436
0.00270432
0.00270437
0.00270425
0.00272214
0.00273693
0.00273465
0.00272454
0.00273715
0.00272199
0.00272455
0.00273678
0.00272171
0.0027221
0.0027346
0.00273692
0.00272441
0.00273714
0.00272449
0.00272191
0.00273709
0.00273708
0.00272191
0.00272193
0.00272192
0.00268146
0.00269651
0.0026966
0.00268135
0.00269648
0.00268135
0.00268148
0.00269652
0.00269662
0.00268136
0.00269417
0.00269424
0.00269417
0.00266401
0.00266398
0.00266394
0.00266394
0.00268171
0.00269659
0.00269416
0.00268396
0.00269667
0.00268157
0.00268406
0.00269653
0.00268137
0.00268174
0.00269422
0.00269665
0.00268407
0.0026967
0.00268409
0.00268162
0.00269657
0.00269657
0.00268166
0.00268134
0.00268134
0.00264139
0.00265627
0.00265633
0.00264132
0.00265621
0.00264126
0.00264137
0.00265626
0.00265631
0.00264131
0.00265399
0.00265395
0.00265398
0.00262408
0.00262409
0.00262409
0.00262416
0.00264164
0.0026563
0.00265395
0.00264396
0.00265641
0.00264146
0.002644
0.00265618
0.00264123
0.00264162
0.00265392
0.00265627
0.00264389
0.00265638
0.00264397
0.00264143
0.00265622
0.00265621
0.00264181
0.00264122
0.00264122
0.00260155
0.00261637
0.00261643
0.00260145
0.00261634
0.00260145
0.00260156
0.00261637
0.00261642
0.00260146
0.00261414
0.00261414
0.00261418
0.00258431
0.00258434
0.00258439
0.00258438
0.00260184
0.00261645
0.00261414
0.00260415
0.00261658
0.00260166
0.00260419
0.00261631
0.00260148
0.00260185
0.00261414
0.00261643
0.00260419
0.00261657
0.00260421
0.00260165
0.00261646
0.00261646
0.00260188
0.00260162
0.00260163
0.002562
0.00257664
0.00257672
0.00256194
0.00257663
0.0025619
0.00256201
0.00257664
0.00257675
0.00256195
0.00257446
0.00257449
0.00257448
0.00254496
0.00254494
0.00254493
0.00254488
0.00256221
0.00257672
0.00257443
0.00256454
0.00257684
0.00256203
0.00256456
0.00257666
0.00256192
0.00256223
0.00257446
0.00257676
0.00256459
0.00257687
0.00256458
0.00256205
0.00257681
0.00257681
0.0025622
0.00256198
0.00256198
0.00252266
0.00253731
0.00253737
0.00252259
0.00253725
0.00252257
0.00252266
0.00253731
0.00253737
0.00252259
0.0025351
0.00253509
0.00253506
0.00250563
0.00250563
0.00250563
0.00250564
0.00252286
0.00253733
0.00253504
0.00252523
0.0025374
0.0025227
0.00252521
0.00253725
0.00252259
0.00252286
0.00253503
0.00253733
0.00252523
0.0025374
0.00252521
0.00252271
0.00253733
0.00253733
0.00252297
0.00252254
0.00252254
0.00248348
0.00249804
0.0024981
0.00248341
0.002498
0.00248342
0.00248348
0.00249804
0.0024981
0.00248341
0.00249585
0.00249584
0.00249586
0.00246657
0.00246661
0.00246659
0.00246658
0.00248369
0.00249807
0.0024958
0.00248603
0.00249816
0.00248352
0.00248604
0.00249801
0.00248341
0.00248368
0.00249579
0.00249808
0.002486
0.00249816
0.00248602
0.00248352
0.00249811
0.00249811
0.00248383
0.00248342
0.00248342
0.00244455
0.00245902
0.00245909
0.00244448
0.00245901
0.00244448
0.00244454
0.00245902
0.00245908
0.00244447
0.00245687
0.00245686
0.00245685
0.00242772
0.00242772
0.00242772
0.00242773
0.00244474
0.00245908
0.00245682
0.0024471
0.00245915
0.0024446
0.00244709
0.00245899
0.00244446
0.00244474
0.00245681
0.00245906
0.00244708
0.00245913
0.00244709
0.00244459
0.0024591
0.00245909
0.00244487
0.0024445
0.00244449
0.0024058
0.00242021
0.00242026
0.00240574
0.00242018
0.00240573
0.00240581
0.00242021
0.00242026
0.00240574
0.00241804
0.00241804
0.00241805
0.00238909
0.00238909
0.00238911
0.00238909
0.00240598
0.00242023
0.00241799
0.00240831
0.0024203
0.00240584
0.00240833
0.00242018
0.00240574
0.00240598
0.002418
0.00242022
0.00240834
0.0024203
0.00240834
0.00240584
0.00242026
0.00242026
0.00240613
0.00240576
0.00240576
0.00236726
0.00238159
0.00238165
0.00236719
0.00238158
0.00236719
0.00236726
0.0023816
0.00238166
0.0023672
0.00237946
0.00237946
0.00237945
0.00235063
0.00235062
0.00235061
0.00235062
0.00236743
0.00238162
0.00237942
0.0023698
0.00238168
0.00236731
0.0023698
0.00238159
0.00236719
0.00236743
0.00237942
0.00238164
0.00236979
0.00238169
0.00236979
0.00236731
0.00238164
0.00238164
0.00236758
0.00236722
0.00236722
0.00232889
0.00234317
0.00234322
0.00232883
0.00234315
0.00232882
0.00232889
0.00234317
0.00234322
0.00232882
0.00234103
0.00234103
0.00234103
0.00231234
0.00231234
0.00231234
0.00231233
0.00232906
0.00234319
0.002341
0.00233142
0.00234324
0.00232893
0.00233142
0.00234315
0.00232882
0.00232905
0.002341
0.00234318
0.00233142
0.00234324
0.00233142
0.00232893
0.0023432
0.0023432
0.00232921
0.00232885
0.00232885
0.0022907
0.00230492
0.00230496
0.00229065
0.0023049
0.00229063
0.0022907
0.00230492
0.00230496
0.00229065
0.00230279
0.00230279
0.00230279
0.00227423
0.00227423
0.00227423
0.00227423
0.00229086
0.00230493
0.00230277
0.00229323
0.00230498
0.00229075
0.00229323
0.0023049
0.00229063
0.00229086
0.00230277
0.00230493
0.00229323
0.00230498
0.00229323
0.00229074
0.00230495
0.00230495
0.00229102
0.00229067
0.00229067
0.00225269
0.00226684
0.00226688
0.00225263
0.00226684
0.00225262
0.00225269
0.00226684
0.00226688
0.00225263
0.00226474
0.00226474
0.00226473
0.00223629
0.00223629
0.00223629
0.0022363
0.00225285
0.00226685
0.00226471
0.00225522
0.0022669
0.00225274
0.00225522
0.00226683
0.00225262
0.00225285
0.00226471
0.00226685
0.00225522
0.0022669
0.00225522
0.00225274
0.00226687
0.00226687
0.00225301
0.00225266
0.00225266
0.00221484
0.00222893
0.00222897
0.00221479
0.00222893
0.00221479
0.00221484
0.00222893
0.00222897
0.00221479
0.00222683
0.00222683
0.00222683
0.00219852
0.00219851
0.00219851
0.00219851
0.00221499
0.00222894
0.00222682
0.00221736
0.00222899
0.00221489
0.00221737
0.00222893
0.00221479
0.00221499
0.00222682
0.00222894
0.00221736
0.00222899
0.00221737
0.00221489
0.00222896
0.00222896
0.00221515
0.00221481
0.00221481
0.00217714
0.00219119
0.00219123
0.0021771
0.00219118
0.0021771
0.00217714
0.00219119
0.00219123
0.0021771
0.00218909
0.00218909
0.00218909
0.00216089
0.00216089
0.00216089
0.00216089
0.0021773
0.0021912
0.00218909
0.00217966
0.00219124
0.00217719
0.00217968
0.00219118
0.0021771
0.0021773
0.00218909
0.0021912
0.00217966
0.00219124
0.00217968
0.0021772
0.00219121
0.00219121
0.00217746
0.00217712
0.00217712
0.00213962
0.0021536
0.00215363
0.00213957
0.00215359
0.00213957
0.00213962
0.0021536
0.00215363
0.00213958
0.00215151
0.00215151
0.00215152
0.00212343
0.00212343
0.00212343
0.00212343
0.00213977
0.00215361
0.00215152
0.00214213
0.00215365
0.00213966
0.00214215
0.00215359
0.00213957
0.00213977
0.00215152
0.00215361
0.00214213
0.00215365
0.00214215
0.00213967
0.00215362
0.00215363
0.00213995
0.0021396
0.0021396
0.00210223
0.00211616
0.0021162
0.00210219
0.00211616
0.00210219
0.00210223
0.00211616
0.0021162
0.00210219
0.00211409
0.00211409
0.00211408
0.00208611
0.00208611
0.00208611
0.00208611
0.00210238
0.00211617
0.0021141
0.00210474
0.00211621
0.00210228
0.00210477
0.00211616
0.00210219
0.00210238
0.0021141
0.00211617
0.00210474
0.00211621
0.00210476
0.00210228
0.00211619
0.00211619
0.00210254
0.00210221
0.00210221
0.00206499
0.00207887
0.00207891
0.00206496
0.00207888
0.00206496
0.00206499
0.00207887
0.00207891
0.00206496
0.00207681
0.00207681
0.00207681
0.00204894
0.00204894
0.00204894
0.00204894
0.00206514
0.00207888
0.00207683
0.0020675
0.00207892
0.00206505
0.00206753
0.00207888
0.00206496
0.00206514
0.00207683
0.00207888
0.0020675
0.00207892
0.00206753
0.00206505
0.0020789
0.0020789
0.00206532
0.00206498
0.00206498
0.0020279
0.00204173
0.00204176
0.00202786
0.00204173
0.00202786
0.0020279
0.00204173
0.00204176
0.00202786
0.00203967
0.00203967
0.00203967
0.00201191
0.00201191
0.00201191
0.00201191
0.00202804
0.00204173
0.00203969
0.00203039
0.00204177
0.00202795
0.00203043
0.00204173
0.00202787
0.00202804
0.00203969
0.00204173
0.00203039
0.00204177
0.00203043
0.00202795
0.00204175
0.00204176
0.00202822
0.00202788
0.00202788
0.00199093
0.00200472
0.00200474
0.0019909
0.00200472
0.0019909
0.00199093
0.00200472
0.00200474
0.0019909
0.00200267
0.00200267
0.00200267
0.001975
0.001975
0.001975
0.001975
0.00199107
0.00200472
0.00200269
0.00199341
0.00200475
0.00199098
0.00199346
0.00200471
0.0019909
0.00199107