/*--------------------------------*- C++ -*----------------------------------*\
| =========                 |                                                 |
| \\      /  F ield         | OpenFOAM: The Open Source CFD Toolbox           |
|  \\    /   O peration     | Version:  v2012                                 |
|   \\  /    A nd           | Website:  www.openfoam.com                      |
|    \\/     M anipulation  |                                                 |
\*---------------------------------------------------------------------------*/
FoamFile
{
    version     2.0;
    format      ascii;
    class       surfaceScalarField;
    location    "875";
    object      phi;
}
// * * * * * * * * * * * * * * * * * * * * * * * * * * * * * * * * * * * * * //

dimensions      [0 3 -1 0 0 0 0];
oriented        oriented;


internalField   nonuniform List<scalar> 
248808
(
-0.00104221
-1.45815e-05
-1.44777e-05
9.34771e-06
9.17762e-06
0.00105274
-0.00026146
-5.64183e-06
1.44583e-05
6.83957e-06
0.00105941
-4.53274e-06
-1.62486e-06
-2.21805e-06
-2.57554e-06
-6.59143e-06
-7.04426e-06
-3.16376e-06
-0.000263303
-0.000259727
-0.000262829
-0.000261437
-5.64682e-06
1.44873e-05
6.92911e-06
0.0010592
-4.53785e-06
-1.63504e-06
-2.22565e-06
-2.57985e-06
-6.58553e-06
-7.04033e-06
-3.16594e-06
-0.000259699
-0.000263274
-0.000262793
-0.000260564
5.61732e-06
5.65742e-06
-4.87815e-06
-4.87221e-06
0.00025904
-1.63187e-06
-1.63377e-06
-0.00106073
8.98537e-07
8.99307e-07
0.0010622
-0.00106267
-1.60665e-06
1.62783e-06
8.28418e-07
0.00106395
-6.53885e-07
7.84505e-07
-1.48154e-07
3.77969e-07
-8.00653e-07
-1.3948e-06
-2.90566e-07
-0.00106235
-1.60156e-06
1.63834e-06
8.23607e-07
0.00106363
-6.53862e-07
7.79015e-07
-1.48203e-07
3.75373e-07
-8.03187e-07
-1.39451e-06
-2.88015e-07
-0.000261533
1.63927e-06
1.60171e-06
-7.13269e-07
-7.16417e-07
0.000259722
-1.36114e-06
-1.36256e-06
-0.0010664
6.82254e-07
6.83062e-07
0.00106775
-0.0010679
-1.55715e-06
1.3673e-06
6.90357e-07
0.00106925
-6.21841e-07
8.38627e-07
-1.06574e-07
4.24393e-07
-7.80405e-07
-1.35996e-06
-2.45166e-07
-0.00106758
-1.5519e-06
1.36211e-06
6.95678e-07
0.00106892
-6.21835e-07
8.33228e-07
-1.06517e-07
4.24324e-07
-7.80334e-07
-1.35442e-06
-2.4262e-07
-0.000262766
1.58732e-06
1.55204e-06
-6.7493e-07
-6.83104e-07
0.000260984
-1.34091e-06
-1.34225e-06
-0.00107186
6.64395e-07
6.65253e-07
0.00107322
-0.00107326
-1.55558e-06
1.34195e-06
6.67259e-07
0.00107457
-6.19986e-07
8.63875e-07
-8.142e-08
4.38138e-07
-7.79413e-07
-1.36929e-06
-2.20312e-07
-0.00107292
-1.55016e-06
1.3418e-06
6.67294e-07
0.00107424
-6.17106e-07
8.58385e-07
-8.39267e-08
4.38351e-07
-7.81887e-07
-1.36908e-06
-2.1773e-07
-0.000264044
1.58324e-06
1.55043e-06
-6.64644e-07
-6.70289e-07
0.000262245
-1.2961e-06
-1.29707e-06
-0.00107721
6.42294e-07
6.43189e-07
0.00107852
-0.00107844
-1.54748e-06
1.29675e-06
6.34016e-07
0.00107969
-6.07592e-07
8.91787e-07
-5.59115e-08
4.60631e-07
-7.68115e-07
-1.37154e-06
-1.88986e-07
-0.0010781
-1.542e-06
1.29656e-06
6.3402e-07
0.00107936
-6.04462e-07
8.86269e-07
-5.83632e-08
4.59592e-07
-7.70622e-07
-1.37069e-06
-1.86709e-07
-0.000265263
1.57522e-06
1.5422e-06
-6.47613e-07
-6.53306e-07
0.000263446
-1.24875e-06
-1.24956e-06
-0.00108237
6.20424e-07
6.21327e-07
0.00108362
-0.00108337
-1.53918e-06
1.24898e-06
6.0425e-07
0.00108457
-5.95439e-07
9.17208e-07
-3.37411e-08
4.84348e-07
-7.53443e-07
-1.3672e-06
-1.58839e-07
-0.00108303
-1.53363e-06
1.24904e-06
6.04453e-07
0.00108423
-5.92275e-07
9.11819e-07
-3.60907e-08
4.82687e-07
-7.56415e-07
-1.36763e-06
-1.56463e-07
-0.000266408
1.56712e-06
1.53388e-06
-6.30928e-07
-6.36692e-07
0.000264575
-1.20399e-06
-1.20564e-06
-0.00108732
6.00863e-07
6.01745e-07
0.00108852
-0.00108806
-1.53247e-06
1.20478e-06
5.80377e-07
0.00108919
-5.85882e-07
9.40234e-07
-1.50077e-08
5.08138e-07
-7.3964e-07
-1.36365e-06
-1.30765e-07
-0.00108772
-1.52686e-06
1.20479e-06
5.80488e-07
0.00108885
-5.82476e-07
9.35035e-07
-1.67284e-08
5.0771e-07
-7.4274e-07
-1.36523e-06
-1.2838e-07
-0.000267479
1.56091e-06
1.52761e-06
-6.16777e-07
-6.22483e-07
0.00026563
-1.16471e-06
-1.16699e-06
-0.00109208
5.84233e-07
5.8517e-07
0.00109324
-0.00109251
-1.5275e-06
1.16682e-06
5.62449e-07
0.00109359
-5.77946e-07
9.60597e-07
7.19153e-10
5.29336e-07
-7.2826e-07
-1.36054e-06
-1.06907e-07
-0.00109217
-1.52205e-06
1.16709e-06
5.62986e-07
0.00109325
-5.74782e-07
9.55031e-07
-2.20763e-09
5.3053e-07
-7.31252e-07
-1.36359e-06
-1.03585e-07
-0.000268482
1.55705e-06
1.52349e-06
-6.05125e-07
-6.1089e-07
0.000266617
-1.13161e-06
-1.1342e-06
-0.00109667
5.70568e-07
5.71121e-07
0.00109779
-0.00109675
-1.52854e-06
1.13378e-06
5.49992e-07
0.00109779
-5.79879e-07
9.7562e-07
1.22989e-08
5.56538e-07
-7.16846e-07
-1.35436e-06
-8.39635e-08
-0.00109641
-1.52293e-06
1.13363e-06
5.49367e-07
0.00109744
-5.77282e-07
9.72033e-07
1.35509e-08
5.53986e-07
-7.19872e-07
-1.35523e-06
-8.12365e-08
-0.000269425
1.55409e-06
1.52054e-06
-5.93447e-07
-5.98993e-07
0.000267543
-1.1018e-06
-1.10495e-06
-0.00110111
5.58628e-07
5.58902e-07
0.0011022
-0.00110081
-1.52664e-06
1.10421e-06
5.3777e-07
0.0011018
-5.70332e-07
9.91886e-07
3.19682e-08
5.75388e-07
-7.09795e-07
-1.35623e-06
-6.64327e-08
-0.00110046
-1.52175e-06
1.10461e-06
5.3823e-07
0.00110145
-5.70024e-07
9.86522e-07
2.54947e-08
5.77234e-07
-7.12297e-07
-1.35584e-06
-6.18824e-08
-0.000270305
1.55537e-06
1.52172e-06
-5.88425e-07
-5.94063e-07
0.00026841
-1.07872e-06
-1.08011e-06
-0.00110542
5.49036e-07
5.49876e-07
0.00110648
-0.0011047
-1.5283e-06
1.07931e-06
5.28721e-07
0.00110564
-5.69869e-07
1.00589e-06
4.20078e-08
5.94462e-07
-6.9867e-07
-1.35118e-06
-5.11367e-08
-0.00110435
-1.5224e-06
1.07899e-06
5.28097e-07
0.0011053
-5.67876e-07
1.00176e-06
4.35825e-08
5.94722e-07
-7.02721e-07
-1.35317e-06
-4.82424e-08
-0.000271131
1.5581e-06
1.52417e-06
-5.8668e-07
-5.92533e-07
0.000269228
-1.055e-06
-1.05607e-06
-0.00110962
5.3887e-07
5.3965e-07
0.00111065
-0.00110843
-1.52912e-06
1.05776e-06
5.22974e-07
0.00110933
-5.68984e-07
1.01931e-06
5.38669e-08
6.14316e-07
-6.87615e-07
-1.34818e-06
-3.5182e-08
-0.00110808
-1.52317e-06
1.05714e-06
5.22335e-07
0.00110898
-5.65725e-07
1.01312e-06
5.47282e-08
6.12705e-07
-6.90826e-07
-1.34911e-06
-3.42723e-08
-0.000271909
1.55716e-06
1.52316e-06
-5.76611e-07
-5.82338e-07
0.000269988
-1.0358e-06
-1.03718e-06
-0.00111371
5.3296e-07
5.33166e-07
0.00111471
-0.00111199
-1.52726e-06
1.03414e-06
5.11252e-07
0.00111285
-5.53502e-07
1.03048e-06
5.998e-08
6.30513e-07
-6.80693e-07
-1.34687e-06
-2.39847e-08
-0.00111164
-1.52379e-06
1.03532e-06
5.12663e-07
0.00111251
-5.60814e-07
1.02378e-06
5.12016e-08
6.33505e-07
-6.81592e-07
-1.34613e-06
-1.83038e-08
-0.000272627
1.56183e-06
1.52751e-06
-5.7668e-07
-5.82773e-07
0.000270697
-1.01719e-06
-1.01699e-06
-0.00111769
5.23375e-07
5.25831e-07
0.00111867
-0.00111542
-1.53245e-06
1.02033e-06
5.09487e-07
0.00111624
-5.6539e-07
1.04287e-06
6.30221e-08
6.50396e-07
-6.64429e-07
-1.33818e-06
-8.99952e-09
-0.00111508
-1.52594e-06
1.01214e-06
5.00011e-07
0.00111589
-5.65532e-07
1.04194e-06
7.50704e-08
6.51303e-07
-6.63618e-07
-1.33438e-06
-7.00945e-09
-0.000273295
1.55706e-06
1.52324e-06
-5.59705e-07
-5.65119e-07
0.000271339
-9.98426e-07
-1.00098e-06
-0.00112158
5.19691e-07
5.17266e-07
0.00112254
-0.0011187
-1.51396e-06
9.69544e-07
4.50871e-07
0.00111944
-5.27929e-07
1.07631e-06
1.13954e-07
6.64471e-07
-6.43352e-07
-1.32508e-06
-8.05166e-10
-0.00111833
-1.51603e-06
9.85164e-07
4.73827e-07
0.00111909
-5.37985e-07
1.05892e-06
9.39076e-08
6.60999e-07
-6.49964e-07
-1.32883e-06
-1.13482e-09
-0.000273892
1.56338e-06
1.5287e-06
-5.57696e-07
-5.63567e-07
0.000271921
-9.74622e-07
-9.74277e-07
-0.00112541
5.01262e-07
5.03581e-07
0.00112636
-0.00112186
-1.54846e-06
9.94813e-07
5.09481e-07
0.00112262
-5.72757e-07
1.0649e-06
8.78674e-08
6.68613e-07
-6.39318e-07
-1.3216e-06
-5.48036e-09
-0.00112149
-1.53965e-06
9.93786e-07
5.08374e-07
0.00112227
-5.67557e-07
1.05536e-06
7.93311e-08
6.68044e-07
-6.45866e-07
-1.32616e-06
-2.5869e-09
-0.000274437
1.56344e-06
1.52945e-06
-5.59289e-07
-5.64681e-07
0.000272468
-9.62235e-07
-9.61807e-07
-0.00112911
5.04008e-07
5.0621e-07
0.00113003
-0.00112479
-1.5212e-06
9.45532e-07
4.62207e-07
0.00112551
-5.28686e-07
1.08595e-06
1.01351e-07
6.76907e-07
-6.29439e-07
-1.3195e-06
6.7659e-09
-0.00112443
-1.51607e-06
9.43545e-07
4.59914e-07
0.00112516
-5.31962e-07
1.0781e-06
9.46387e-08
6.79756e-07
-6.3202e-07
-1.31982e-06
1.55644e-08
-0.000274935
1.55893e-06
1.52475e-06
-5.47423e-07
-5.52937e-07
0.000272952
-8.96178e-07
-8.99473e-07
-0.00113273
4.70818e-07
4.67303e-07
0.00113359
-0.00112761
-1.5048e-06
9.0013e-07
3.99312e-07
0.00112827
-4.98518e-07
1.11514e-06
1.34028e-07
6.89243e-07
-6.1198e-07
-1.30591e-06
2.12867e-08
-0.00112725
-1.50801e-06
9.11967e-07
4.15494e-07
0.00112792
-5.17234e-07
1.10049e-06
1.18632e-07
6.94054e-07
-6.08709e-07
-1.30252e-06
3.07117e-08
-0.000275372
1.57578e-06
1.54069e-06
-5.5567e-07
-5.61765e-07
0.000273373
-9.47712e-07
-9.4951e-07
-0.00113623
4.9844e-07
4.98153e-07
0.00113713
-0.00113023
-1.54825e-06
9.27046e-07
5.06957e-07
0.00113088
-5.62042e-07
1.08105e-06
7.9508e-08
7.04499e-07
-5.82244e-07
-1.2835e-06
3.54741e-08
-0.00112989
-1.53971e-06
9.18916e-07
4.90308e-07
0.00113051
-5.56091e-07
1.08346e-06
9.21648e-08
7.06982e-07
-5.82981e-07
-1.28003e-06
3.936e-08
-0.000275762
1.5194e-06
1.48443e-06
-4.90133e-07
-4.96194e-07
0.000273745
-8.47785e-07
-8.43533e-07
-0.0011396
4.32305e-07
4.42273e-07
0.00114042
-0.00113267
-1.50053e-06
8.82134e-07
3.99385e-07
0.00113323
-4.89093e-07
1.12166e-06
1.17692e-07
7.10481e-07
-5.67307e-07
-1.27359e-06
4.75605e-08
-0.00113235
-1.49329e-06
8.50745e-07
3.47809e-07
0.00113291
-4.80996e-07
1.13611e-06
1.61518e-07
7.12211e-07
-5.68863e-07
-1.2682e-06
4.61412e-08
-0.00027604
1.58615e-06
1.55233e-06
-5.50165e-07
-5.55649e-07
0.000274007
-8.62511e-07
-8.67935e-07
-0.001143
4.62979e-07
4.53981e-07
0.00114381
-0.00113499
-1.5255e-06
8.6414e-07
4.28374e-07
0.00113551
-5.01278e-07
1.12223e-06
1.48657e-07
7.13475e-07
-5.56092e-07
-1.25397e-06
3.61921e-08
-0.0011346
-1.55536e-06
9.11758e-07
5.10377e-07
0.00113517
-5.59675e-07
1.07786e-06
8.46314e-08
7.19857e-07
-5.50557e-07
-1.24753e-06
4.50559e-08
-0.000276255
1.54825e-06
1.51259e-06
-5.10535e-07
-5.16379e-07
0.000274221
-8.57983e-07
-8.54448e-07
-0.00114621
4.54662e-07
4.62005e-07
0.00114701
-0.00113704
-1.50408e-06
8.32006e-07
4.12611e-07
0.00113753
-4.89951e-07
1.12967e-06
1.30268e-07
7.22489e-07
-5.36478e-07
-1.24014e-06
5.23e-08
-0.00113668
-1.47816e-06
8.11109e-07
3.74434e-07
0.00113716
-4.58124e-07
1.14157e-06
1.48103e-07
7.16501e-07
-5.4526e-07
-1.24726e-06
5.16363e-08
-0.000276449
1.5118e-06
1.47804e-06
-4.63427e-07
-4.68687e-07
0.000274392
-8.4563e-07
-8.44457e-07
-0.00114935
4.47011e-07
4.50335e-07
0.00115014
-0.00113896
-1.50091e-06
8.327e-07
4.05151e-07
0.0011394
-4.81916e-07
1.13201e-06
1.30122e-07
7.26298e-07
-5.21704e-07
-1.22445e-06
5.57839e-08
-0.00113861
-1.4922e-06
8.24401e-07
3.95684e-07
0.00113905
-4.73014e-07
1.12892e-06
1.30153e-07
7.28389e-07
-5.22505e-07
-1.22288e-06
6.26481e-08
-0.000276508
1.55043e-06
1.51615e-06
-4.90955e-07
-4.96271e-07
0.000274428
-7.70465e-07
-7.76658e-07
-0.00115239
4.09231e-07
4.01544e-07
0.00115313
-0.00114066
-1.48083e-06
7.91816e-07
3.68784e-07
0.00114105
-4.51492e-07
1.14859e-06
1.51776e-07
7.33437e-07
-5.06641e-07
-1.2079e-06
6.39528e-08
-0.0011403
-1.49067e-06
8.13985e-07
4.06991e-07
0.00114069
-4.7195e-07
1.12741e-06
1.26834e-07
7.36169e-07
-5.06577e-07
-1.20513e-06
6.85599e-08
-0.000276476
1.52506e-06
1.48885e-06
-4.67728e-07
-4.74199e-07
0.000274404
-7.94387e-07
-7.95559e-07
-0.00115536
4.30141e-07
4.30627e-07
0.00115609
-0.00114216
-1.49706e-06
7.90318e-07
4.25584e-07
0.00114251
-4.76916e-07
1.12916e-06
1.25879e-07
7.46439e-07
-4.84183e-07
-1.18283e-06
7.41147e-08
-0.00114177
-1.48655e-06
7.8708e-07
4.1851e-07
0.00114212
-4.68854e-07
1.12605e-06
1.23991e-07
7.45314e-07
-4.88052e-07
-1.18443e-06
7.6551e-08
-0.000276468
1.50227e-06
1.46739e-06
-4.41664e-07
-4.4738e-07
0.000274388
-7.65163e-07
-7.65493e-07
-0.00115821
4.13435e-07
4.14673e-07
0.00115892
-0.00114345
-1.4683e-06
7.48532e-07
3.67687e-07
0.00114375
-4.3879e-07
1.15188e-06
1.53374e-07
7.49538e-07
-4.72203e-07
-1.16852e-06
7.87371e-08
-0.00114307
-1.46273e-06
7.4882e-07
3.66557e-07
0.00114338
-4.35102e-07
1.14692e-06
1.52671e-07
7.47821e-07
-4.76796e-07
-1.16966e-06
7.90112e-08
-0.000276387
1.49992e-06
1.46529e-06
-4.331e-07
-4.38496e-07
0.000274293
-7.36661e-07
-7.34392e-07
-0.00116095
3.95173e-07
3.99271e-07
0.00116163
-0.00114456
-1.46946e-06
7.45556e-07
3.92249e-07
0.00114481
-4.43876e-07
1.14479e-06
1.4397e-07
7.57388e-07
-4.54919e-07
-1.14764e-06
8.49305e-08
-0.0011442
-1.46104e-06
7.4091e-07
3.84721e-07
0.00114445
-4.39334e-07
1.14129e-06
1.42003e-07
7.56996e-07
-4.57339e-07
-1.14797e-06
8.82568e-08
-0.000276228
1.48503e-06
1.45103e-06
-4.17111e-07
-4.22028e-07
0.000274131
-7.06218e-07
-7.06135e-07
-0.0011636
3.86755e-07
3.87712e-07
0.00116424
-0.00114547
-1.44437e-06
7.04502e-07
3.5009e-07
0.00114567
-4.1415e-07
1.16204e-06
1.64392e-07
7.61012e-07
-4.42549e-07
-1.13282e-06
9.01966e-08
-0.00114512
-1.43688e-06
7.02075e-07
3.48537e-07
0.00114531
-4.08684e-07
1.1573e-06
1.61375e-07
7.62079e-07
-4.43525e-07
-1.13167e-06
9.54637e-08
-0.000276042
1.47462e-06
1.43992e-06
-4.05089e-07
-4.10593e-07
0.000273943
-6.8053e-07
-6.8297e-07
-0.00116614
3.77489e-07
3.75363e-07
0.00116675
-0.00114621
-1.44043e-06
6.92277e-07
3.62252e-07
0.00114636
-4.15654e-07
1.15733e-06
1.55825e-07
7.69882e-07
-4.24956e-07
-1.11262e-06
9.91785e-08
-0.00114584
-1.43714e-06
6.97037e-07
3.6932e-07
0.00114599
-4.13311e-07
1.15062e-06
1.54355e-07
7.68947e-07
-4.28744e-07
-1.11268e-06
1.0012e-07
-0.000275823
1.46286e-06
1.42743e-06
-3.92525e-07
-3.98629e-07
0.000273724
-6.68858e-07
-6.68457e-07
-0.00116857
3.73743e-07
3.75542e-07
0.00116915
-0.00114675
-1.42342e-06
6.66668e-07
3.44159e-07
0.00114686
-3.98457e-07
1.16534e-06
1.64534e-07
7.7424e-07
-4.12934e-07
-1.09779e-06
1.04292e-07
-0.00114638
-1.41628e-06
6.63689e-07
3.39256e-07
0.0011465
-3.94793e-07
1.16061e-06
1.61719e-07
7.74249e-07
-4.15293e-07
-1.09782e-06
1.07664e-07
-0.000275583
1.45089e-06
1.41636e-06
-3.81324e-07
-3.86699e-07
0.000273484
-6.48782e-07
-6.48963e-07
-0.00117086
3.67691e-07
3.68376e-07
0.00117143
-0.00114714
-1.4115e-06
6.45585e-07
3.35778e-07
0.00114721
-3.89984e-07
1.16787e-06
1.65412e-07
7.80337e-07
-3.99237e-07
-1.08165e-06
1.111e-07
-0.00114677
-1.40594e-06
6.44865e-07
3.34698e-07
0.00114685
-3.86248e-07
1.1628e-06
1.64266e-07
7.80215e-07
-4.02065e-07
-1.08141e-06
1.13616e-07
-0.000275326
1.43785e-06
1.40309e-06
-3.6854e-07
-3.74037e-07
0.000273228
-6.19844e-07
-6.20043e-07
-0.00117305
3.55795e-07
3.56341e-07
0.00117358
-0.00114737
-1.397e-06
6.21511e-07
3.22669e-07
0.0011474
-3.77856e-07
1.17281e-06
1.68706e-07
7.86582e-07
-3.85684e-07
-1.066e-06
1.18749e-07
-0.001147
-1.392e-06
6.21691e-07
3.23105e-07
0.00114704
-3.75934e-07
1.16678e-06
1.6576e-07
7.86526e-07
-3.88186e-07
-1.06572e-06
1.21391e-07
-0.000275059
1.42351e-06
1.38879e-06
-3.55381e-07
-3.60771e-07
0.000272963
-5.93482e-07
-5.93823e-07
-0.00117512
3.45655e-07
3.46163e-07
0.00117561
-0.00114746
-1.38253e-06
5.95926e-07
3.03258e-07
0.00114745
-3.6286e-07
1.17978e-06
1.78204e-07
7.91841e-07
-3.74431e-07
-1.05141e-06
1.2421e-07
-0.00114709
-1.37738e-06
5.96501e-07
3.04262e-07
0.00114709
-3.61061e-07
1.17358e-06
1.74426e-07
7.91723e-07
-3.76847e-07
-1.05125e-06
1.26998e-07
-0.000274789
1.41299e-06
1.37826e-06
-3.45972e-07
-3.51424e-07
0.000272696
-5.74537e-07
-5.74712e-07
-0.00117706
3.41285e-07
3.41919e-07
0.00117752
-0.00114741
-1.37067e-06
5.71278e-07
2.86551e-07
0.00114738
-3.52968e-07
1.18408e-06
1.83897e-07
7.97441e-07
-3.62726e-07
-1.03708e-06
1.30002e-07
-0.00114705
-1.36498e-06
5.71256e-07
2.86593e-07
0.00114702
-3.50335e-07
1.17836e-06
1.80622e-07
7.9729e-07
-3.65209e-07
-1.03696e-06
1.3288e-07
-0.000274518
1.4012e-06
1.36645e-06
-3.35813e-07
-3.41258e-07
0.000272427
-5.47508e-07
-5.47736e-07
-0.00117887
3.30916e-07
3.31492e-07
0.0011793
-0.00114726
-1.35942e-06
5.48222e-07
2.70767e-07
0.0011472
-3.44751e-07
1.18733e-06
1.8715e-07
8.03091e-07
-3.50879e-07
-1.02334e-06
1.3641e-07
-0.00114689
-1.35368e-06
5.48061e-07
2.7066e-07
0.00114684
-3.41789e-07
1.18174e-06
1.84208e-07
8.0297e-07
-3.53423e-07
-1.02317e-06
1.39273e-07
-0.00027425
1.3893e-06
1.35458e-06
-3.25213e-07
-3.30643e-07
0.000272162
-5.24756e-07
-5.25028e-07
-0.00118055
3.24337e-07
3.24883e-07
0.00118095
-0.001147
-1.34836e-06
5.25423e-07
2.56028e-07
0.00114693
-3.35996e-07
1.19051e-06
1.90602e-07
8.07941e-07
-3.40172e-07
-1.01073e-06
1.42051e-07
-0.00114664
-1.34264e-06
5.25284e-07
2.55803e-07
0.00114656
-3.32882e-07
1.18506e-06
1.88102e-07
8.07719e-07
-3.42865e-07
-1.01063e-06
1.44693e-07
-0.000273984
1.37598e-06
1.34127e-06
-3.13778e-07
-3.192e-07
0.0002719
-4.99383e-07
-4.99484e-07
-0.0011821
3.15309e-07
3.15963e-07
0.00118247
-0.00114666
-1.3367e-06
5.00122e-07
2.37114e-07
0.00114656
-3.26417e-07
1.19435e-06
1.94561e-07
8.13102e-07
-3.2949e-07
-9.98414e-07
1.48275e-07
-0.00114629
-1.33098e-06
4.9987e-07
2.36752e-07
0.0011462
-3.23455e-07
1.18884e-06
1.91865e-07
8.12962e-07
-3.32035e-07
-9.98258e-07
1.51066e-07
-0.000273729
1.36683e-06
1.33217e-06
-3.06229e-07
-3.11627e-07
0.000271648
-4.75537e-07
-4.75755e-07
-0.00118353
3.0791e-07
3.0842e-07
0.00118386
-0.00114625
-1.32541e-06
4.74544e-07
2.17491e-07
0.00114614
-3.16044e-07
1.19881e-06
2.00762e-07
8.175e-07
-3.20114e-07
-9.87135e-07
1.53328e-07
-0.00114588
-1.31979e-06
4.74395e-07
2.17537e-07
0.00114577
-3.13133e-07
1.19323e-06
1.98006e-07
8.17409e-07
-3.22613e-07
-9.86919e-07
1.56132e-07
-0.000273478
1.35444e-06
1.31977e-06
-2.95736e-07
-3.01121e-07
0.000271401
-4.50731e-07
-4.50876e-07
-0.00118482
2.99042e-07
2.99669e-07
0.00118512
-0.00114577
-1.31656e-06
4.5149e-07
2.02635e-07
0.00114565
-3.0963e-07
1.20092e-06
2.03355e-07
8.21873e-07
-3.10648e-07
-9.7612e-07
1.58328e-07
-0.00114541
-1.31067e-06
4.50784e-07
2.01271e-07
0.00114528
-3.06257e-07
1.19584e-06
2.01469e-07
8.21648e-07
-3.1335e-07
-9.76035e-07
1.60927e-07
-0.000273238
1.34504e-06
1.31041e-06
-2.88285e-07
-2.93661e-07
0.000271165
-4.25129e-07
-4.25278e-07
-0.00118598
2.89575e-07
2.90074e-07
0.00118625
-0.00114525
-1.30655e-06
4.25711e-07
1.84885e-07
0.00114512
-3.01823e-07
1.20378e-06
2.06061e-07
8.26556e-07
-3.0109e-07
-9.65481e-07
1.64167e-07
-0.00114488
-1.30149e-06
4.26097e-07
1.85842e-07
0.00114475
-2.99874e-07
1.19776e-06
2.02774e-07
8.2644e-07
-3.03575e-07
-9.65234e-07
1.66842e-07
-0.000273007
1.3359e-06
1.30129e-06
-2.80855e-07
-2.86208e-07
0.000270937
-3.99379e-07
-4.10858e-07
-0.00118701
2.79734e-07
2.80294e-07
0.00118726
-0.0011447
-1.29639e-06
3.99089e-07
1.65216e-07
0.00114455
-2.91872e-07
1.20803e-06
2.12313e-07
8.3012e-07
-2.9334e-07
-9.56148e-07
1.6834e-07
-0.00114433
-1.29078e-06
3.98998e-07
1.65365e-07
0.00114418
-2.89329e-07
1.20229e-06
2.09037e-07
8.30021e-07
-2.95803e-07
-9.55993e-07
1.71223e-07
-0.000272784
1.3261e-06
1.29152e-06
-2.73026e-07
-2.78364e-07
0.000270718
-3.74196e-07
-3.74306e-07
-0.00118793
2.69588e-07
2.70114e-07
0.00118814
-0.00114411
-1.28838e-06
3.72824e-07
1.48904e-07
0.00114396
-2.82879e-07
1.21043e-06
2.13033e-07
8.34172e-07
-2.85012e-07
-9.46577e-07
1.7289e-07
-0.00114374
-1.28262e-06
3.7263e-07
1.48777e-07
0.00114359
-2.82568e-07
1.20491e-06
2.13081e-07
8.34007e-07
-2.87636e-07
-9.46464e-07
1.75677e-07
-0.000272574
1.31786e-06
1.28328e-06
-2.66473e-07
-2.71817e-07
0.000270511
-3.47393e-07
-3.47491e-07
-0.00118872
2.57805e-07
2.58308e-07
0.0011889
-0.00114351
-1.28167e-06
3.49327e-07
1.37208e-07
0.00114336
-2.78683e-07
1.21122e-06
2.13709e-07
8.38001e-07
-2.76972e-07
-9.37584e-07
1.77371e-07
-0.00114314
-1.27588e-06
3.48934e-07
1.36565e-07
0.00114299
-2.78203e-07
1.20591e-06
2.14234e-07
8.37747e-07
-2.79717e-07
-9.37532e-07
1.79989e-07
-0.00027237
1.30995e-06
1.2754e-06
-2.60356e-07
-2.6569e-07
0.000270311
-3.22136e-07
-3.2216e-07
-0.00118939
2.46427e-07
2.4691e-07
0.00118955
-0.00114289
-1.27284e-06
3.2142e-07
1.20117e-07
0.00114274
-2.71045e-07
1.21417e-06
2.16993e-07
8.41642e-07
-2.69675e-07
-9.29404e-07
1.81963e-07
-0.00114253
-1.26739e-06
3.21274e-07
1.20173e-07
0.00114237
-2.71227e-07
1.2085e-06
2.1693e-07
8.41558e-07
-2.72181e-07
-9.29176e-07
1.84753e-07
-0.000272179
1.30233e-06
1.2678e-06
-2.54482e-07
-2.59796e-07
0.000270123
-2.9521e-07
-2.95316e-07
-0.00118996
2.33186e-07
2.33501e-07
0.00119008
-0.00114228
-1.26587e-06
2.9574e-07
1.0653e-07
0.00114213
-2.64817e-07
1.21633e-06
2.20717e-07
8.44613e-07
-2.63231e-07
-9.2176e-07
1.85267e-07
-0.00114191
-1.26037e-06
2.95816e-07
1.06635e-07
0.00114176
-2.64878e-07
1.21072e-06
2.20729e-07
8.44404e-07
-2.6589e-07
-9.21669e-07
1.8792e-07
-0.000271996
1.29461e-06
1.26007e-06
-2.48559e-07
-2.53889e-07
0.000269944
-2.70324e-07
-2.70243e-07
-0.00119041
2.20656e-07
2.21128e-07
0.00119051
-0.00114167
-1.25954e-06
2.69412e-07
9.42285e-08
0.00114152
-2.60394e-07
1.2175e-06
2.21865e-07
8.4863e-07
-2.55739e-07
-9.13571e-07
1.90002e-07
-0.0011413
-1.25396e-06
2.69123e-07
9.4021e-08
0.00114115
-2.60453e-07
1.21188e-06
2.21728e-07
8.48541e-07
-2.58262e-07
-9.13396e-07
1.92833e-07
-0.000271824
1.28934e-06
1.25487e-06
-2.44604e-07
-2.49889e-07
0.000269775
-2.44516e-07
-2.44541e-07
-0.00119077
2.06848e-07
2.07144e-07
0.00119085
-0.00114106
-1.2534e-06
2.45306e-07
8.26972e-08
0.00114092
-2.54958e-07
1.21939e-06
2.25164e-07
8.50718e-07
-2.50614e-07
-9.07341e-07
1.92318e-07
-0.0011407
-1.24786e-06
2.4532e-07
8.27738e-08
0.00114055
-2.54889e-07
1.21381e-06
2.25233e-07
8.50529e-07
-2.53261e-07
-9.07243e-07
1.94989e-07
-0.000271659
1.28178e-06
1.24728e-06
-2.38959e-07
-2.44267e-07
0.000269613
5.22146e-06
5.23231e-06
0.000260567
-0.000259171
-5.93189e-06
-5.91777e-06
5.08158e-06
0.000261409
-0.000258686
-5.96204e-06
3.37916e-06
-5.22153e-06
5.07656e-06
0.000261442
-0.000258702
-5.97005e-06
3.37432e-06
5.22214e-06
0.000260579
-0.000259173
-5.90328e-06
-5.94651e-06
5.07467e-06
0.000261473
-0.000258717
-5.96755e-06
3.369e-06
5.0814e-06
-5.22378e-06
0.000261417
-0.000258686
3.38421e-06
-5.97225e-06
1.07111e-05
1.06174e-05
-0.000252649
-0.000256079
-0.000255118
-0.000255118
-6.41734e-06
-4.12515e-06
-6.6623e-06
-6.41771e-06
-4.12609e-06
-6.66784e-06
-5.06963e-06
0.00104223
1.06707e-05
1.06227e-05
-0.000252651
-0.000256076
-0.000255121
-0.000255121
-6.41996e-06
-4.12544e-06
-6.66504e-06
-6.41517e-06
-4.12088e-06
-6.66025e-06
-5.06927e-06
0.00104211
1.0731e-05
1.06833e-05
-0.000252643
-0.000256071
-0.000255118
-0.000255113
-6.41981e-06
-4.13281e-06
-6.66497e-06
-6.42001e-06
-4.12309e-06
-6.66258e-06
-5.08397e-06
-5.07209e-06
0.00104217
1.07263e-05
1.06276e-05
-0.000252646
-0.000256074
-0.000255118
-0.000255118
-6.4147e-06
-4.12777e-06
-6.65997e-06
-6.42014e-06
-4.12593e-06
-6.6653e-06
-0.000258712
-5.95991e-06
3.36395e-06
-5.22138e-06
0.000261404
-0.000258684
3.37919e-06
-5.96198e-06
5.22453e-06
0.000260559
-0.000259158
-5.9056e-06
-5.94373e-06
-0.000258697
3.37148e-06
-5.95704e-06
-5.23228e-06
0.000261471
-0.000258712
3.36649e-06
-5.96502e-06
-0.000259168
-5.93177e-06
-5.9178e-06
5.61757e-06
5.65479e-06
-4.87837e-06
-4.87223e-06
0.000259045
-7.80481e-07
-7.44602e-07
0.000261544
-0.000259462
-2.82248e-07
-2.74855e-07
7.09202e-06
0.00105882
-4.53008e-06
-1.57833e-06
-2.21273e-06
-2.57666e-06
-6.60588e-06
-7.05008e-06
-3.17074e-06
-0.000263264
-0.000259684
-0.000262793
-5.62803e-06
1.4555e-05
7.03144e-06
0.00105919
-4.5492e-06
-1.57072e-06
-2.21587e-06
-2.58758e-06
-6.6374e-06
-7.06699e-06
-3.18642e-06
-0.000263338
-0.000259715
-0.000262834
0.00106192
2.02401e-06
-0.00106086
9.73753e-07
-1.71809e-06
-1.69111e-07
-6.92238e-07
-1.46542e-06
-3.07562e-07
-8.28052e-07
3.43211e-07
7.88561e-07
0.00106234
2.02437e-06
-0.00106128
9.68687e-07
-1.7285e-06
-1.61616e-07
-6.97737e-07
-1.47112e-06
-3.07711e-07
-8.28413e-07
3.48627e-07
-4.87646e-06
-4.86912e-06
0.000259055
-7.47278e-07
0.000261569
-0.000259482
-2.79597e-07
-2.71988e-07
6.81326e-06
0.00105966
-4.55437e-06
-1.63766e-06
-2.22893e-06
-2.58588e-06
-6.61991e-06
-7.06237e-06
-3.18164e-06
-0.000263359
-0.000259742
-0.000262847
-5.62773e-06
1.45894e-05
7.12546e-06
0.00105896
-4.54903e-06
-1.58079e-06
-2.2209e-06
-2.58953e-06
-6.6367e-06
-7.06586e-06
-3.18603e-06
-0.000259684
-0.000263315
-0.000262806
0.00106294
2.03159e-06
-0.00106187
9.6225e-07
-1.68817e-06
-1.7162e-07
-6.92516e-07
-1.46846e-06
-3.07671e-07
-8.25817e-07
3.4559e-07
7.77942e-07
0.00106203
2.0346e-06
-0.00106099
9.84065e-07
-1.71815e-06
-1.66659e-07
-6.92433e-07
-1.46824e-06
-3.05094e-07
-8.30808e-07
3.43158e-07
1.45864e-05
7.11279e-06
0.00105877
-4.53002e-06
-1.57822e-06
-2.2101e-06
-2.5767e-06
-6.60589e-06
-3.17079e-06
-7.04776e-06
-0.000259679
-0.000263259
-0.000262788
2.03092e-06
-0.00106161
9.67485e-07
-1.68807e-06
-1.68943e-07
-6.89597e-07
-1.46574e-06
-3.10052e-07
3.40378e-07
-8.25533e-07
7.77915e-07
0.00106182
2.03422e-06
-0.00106078
9.84098e-07
-1.71806e-06
-1.66546e-07
-6.92193e-07
-1.46809e-06
-3.07535e-07
-8.28e-07
3.45745e-07
-4.88128e-06
-4.86889e-06
0.000259035
-7.39134e-07
0.000261521
-0.000259444
-2.82647e-07
-2.77213e-07
1.44875e-05
6.83175e-06
0.00105961
-4.55451e-06
-1.63767e-06
-2.22898e-06
-2.5857e-06
-6.61978e-06
-3.18154e-06
-7.05964e-06
-0.000259732
-0.000263356
-0.000262842
2.03595e-06
-0.00106131
9.83008e-07
-1.68558e-06
-1.71493e-07
-6.92266e-07
-1.46262e-06
-3.05026e-07
3.40438e-07
-8.28065e-07
7.39227e-07
0.00106284
2.03659e-06
-0.00106179
9.72565e-07
-1.68313e-06
-1.71649e-07
-6.89936e-07
-1.46569e-06
-3.0751e-07
-8.28231e-07
3.40601e-07
-0.000259459
-2.79781e-07
-2.7743e-07
1.63935e-06
1.60414e-06
-7.10555e-07
-7.19026e-07
0.00025973
-8.66326e-07
-8.27641e-07
0.000262778
-0.000260667
-2.12617e-07
-2.05051e-07
8.29637e-07
0.00106319
-6.56437e-07
8.17754e-07
-1.43307e-07
3.78157e-07
-8.0055e-07
-1.39712e-06
-2.90475e-07
-1.64463e-06
1.63226e-06
8.24414e-07
0.00106362
-6.59291e-07
8.25827e-07
-1.43316e-07
3.83603e-07
-8.03532e-07
-1.40283e-06
-2.88159e-07
0.00106713
1.383e-06
-0.0010658
7.02147e-07
-1.59182e-06
-1.035e-07
-6.2866e-07
-1.35459e-06
-2.49037e-07
-7.76756e-07
4.22397e-07
8.71693e-07
0.00106757
1.38327e-06
-0.00106623
6.97075e-07
-1.59714e-06
-1.0362e-07
-6.28869e-07
-1.35763e-06
-2.49131e-07
-7.77137e-07
4.25211e-07
-7.11052e-07
-7.18356e-07
0.000259748
-8.32892e-07
0.000262804
-0.000260679
-2.12666e-07
-2.07554e-07
8.23145e-07
0.00106421
-6.54072e-07
7.81855e-07
-1.45761e-07
3.80603e-07
-8.03596e-07
-1.40027e-06
-2.88117e-07
-1.63935e-06
1.63749e-06
8.297e-07
0.0010633
-6.5928e-07
8.17858e-07
-1.4335e-07
3.78165e-07
-8.03258e-07
-1.39732e-06
-2.87996e-07
0.00106816
1.38438e-06
-0.00106684
7.01111e-07
-1.5539e-06
-1.08423e-07
-6.2365e-07
-1.35235e-06
-2.46601e-07
-7.77125e-07
4.25064e-07
8.611e-07
0.00106725
1.38303e-06
-0.00106591
7.02231e-07
-1.58922e-06
-1.06102e-07
-6.28788e-07
-1.35475e-06
-2.48993e-07
-7.76829e-07
4.25182e-07
1.63205e-06
8.29732e-07
0.0010631
-6.59064e-07
8.15186e-07
-1.45741e-07
3.78106e-07
-8.03182e-07
-2.88024e-07
-1.39723e-06
1.38398e-06
-0.00106657
7.06468e-07
-1.56169e-06
-1.10853e-07
-6.23485e-07
-1.35226e-06
-2.46619e-07
4.24925e-07
-7.76935e-07
8.63715e-07
0.00106704
1.37772e-06
-0.0010657
7.02257e-07
-1.58914e-06
-1.05954e-07
-6.28639e-07
-1.35474e-06
-2.49038e-07
-7.7679e-07
4.22448e-07
-7.13819e-07
-7.15801e-07
0.000259709
-8.24818e-07
0.000262753
-0.000260646
-2.1287e-07
-2.07524e-07
1.63355e-06
8.18032e-07
0.00106413
-6.54135e-07
7.7644e-07
-1.50869e-07
3.75473e-07
-8.00812e-07
-2.92948e-07
-1.39476e-06
1.38397e-06
-0.00106625
7.01385e-07
-1.55116e-06
-1.10871e-07
-6.23439e-07
-1.34667e-06
-2.49028e-07
4.16863e-07
-7.76851e-07
8.27512e-07
0.00106807
1.38438e-06
-0.00106674
7.01197e-07
-1.55137e-06
-1.10997e-07
-6.23739e-07
-1.35495e-06
-2.49043e-07
-7.7972e-07
4.22406e-07
-0.000260654
-2.12717e-07
-2.07638e-07
1.58995e-06
1.55722e-06
-6.72249e-07
-6.80565e-07
0.000260984
-8.90541e-07
-8.5427e-07
0.00026406
-0.000261937
-1.91617e-07
-1.86504e-07
6.91225e-07
0.00106848
-6.29679e-07
8.72068e-07
-9.92733e-08
4.2461e-07
-7.7769e-07
-1.35453e-06
-2.4752e-07
-1.59533e-06
1.36147e-06
7.01852e-07
0.00106891
-6.29928e-07
8.7749e-07
-9.93067e-08
4.3003e-07
-7.80617e-07
-1.36006e-06
-2.42723e-07
0.00107249
1.34959e-06
-0.00107117
6.75864e-07
-1.58987e-06
-8.54616e-08
-6.24831e-07
-1.36719e-06
-2.29997e-07
-7.78236e-07
4.33516e-07
8.95877e-07
0.00107292
1.34983e-06
-0.00107159
6.76034e-07
-1.59526e-06
-8.32156e-08
-6.27751e-07
-1.37508e-06
-2.25093e-07
-7.83647e-07
4.41904e-07
-6.753e-07
-6.77513e-07
0.000261005
-8.56897e-07
0.000264088
-0.000261962
-1.89109e-07
-1.83907e-07
6.90237e-07
0.00106952
-6.27356e-07
8.3599e-07
-1.04195e-07
4.27101e-07
-7.80585e-07
-1.36002e-06
-2.42669e-07
-1.58735e-06
1.36128e-06
6.96573e-07
0.00106859
-6.29858e-07
8.69514e-07
-9.92621e-08
4.2735e-07
-7.80319e-07
-1.35727e-06
-2.42519e-07
0.00107352
1.35085e-06
-0.0010722
6.74833e-07
-1.55438e-06
-8.79572e-08
-6.22461e-07
-1.36978e-06
-2.25093e-07
-7.83676e-07
4.36209e-07
8.90579e-07
0.0010726
1.3497e-06
-0.00107127
6.7604e-07
-1.58993e-06
-8.31246e-08
-6.27744e-07
-1.36994e-06
-2.2484e-07
-7.83468e-07
4.36487e-07
1.36627e-06
6.91335e-07
0.00106839
-6.26988e-07
8.66797e-07
-1.04177e-07
4.27075e-07
-7.80249e-07
-2.45138e-07
-1.35713e-06
1.35052e-06
-0.00107193
6.74966e-07
-1.55694e-06
-8.79589e-08
-6.22298e-07
-1.36724e-06
-2.27506e-07
4.33723e-07
-7.80938e-07
8.85172e-07
0.0010724
1.34939e-06
-0.00107107
6.75892e-07
-1.58463e-06
-8.78892e-08
-6.22207e-07
-1.36671e-06
-2.27577e-07
-7.80599e-07
4.33709e-07
-6.75389e-07
-6.8002e-07
0.000260969
-8.51487e-07
0.000264039
-0.000261921
-1.9181e-07
-1.83888e-07
1.36253e-06
6.95528e-07
0.00106942
-6.22082e-07
8.27939e-07
-1.09193e-07
4.24472e-07
-7.779e-07
-2.45149e-07
-1.35471e-06
1.35044e-06
-0.0010716
6.75068e-07
-1.55168e-06
-9.04154e-08
-6.19711e-07
-1.3669e-06
-2.24987e-07
4.33587e-07
-7.83405e-07
8.51501e-07
0.00107344
1.3508e-06
-0.00107211
6.74826e-07
-1.55185e-06
-9.04092e-08
-6.19938e-07
-1.36436e-06
-2.27555e-07
-7.80896e-07
4.31197e-07
-0.000261934
-1.89081e-07
-1.83871e-07
1.58861e-06
1.55299e-06
-6.6197e-07
-6.67765e-07
0.000262248