/*--------------------------------*- C++ -*----------------------------------*\
| =========                 |                                                 |
| \\      /  F ield         | OpenFOAM: The Open Source CFD Toolbox           |
|  \\    /   O peration     | Version:  v2012                                 |
|   \\  /    A nd           | Website:  www.openfoam.com                      |
|    \\/     M anipulation  |                                                 |
\*---------------------------------------------------------------------------*/
FoamFile
{
    version     2.0;
    format      ascii;
    class       volVectorField;
    location    "875";
    object      U;
}
// * * * * * * * * * * * * * * * * * * * * * * * * * * * * * * * * * * * * * //

dimensions      [0 1 -1 0 0 0 0];


internalField   nonuniform List<vector> 
85864
(
(0.000107958 0.000107892 0.100299)
(-0.000190195 0.00011927 0.100385)
(0.000119341 -0.000190187 0.100385)
(-0.000239593 -0.000239612 0.100397)
(9.42793e-05 9.42319e-05 0.10086)
(-0.000158939 9.68065e-05 0.100942)
(9.68112e-05 -0.000158935 0.100942)
(-0.000201047 -0.000201098 0.100968)
(9.54251e-05 9.54125e-05 0.10137)
(-0.000155796 9.34669e-05 0.101449)
(9.34562e-05 -0.000155804 0.101449)
(-0.000201986 -0.000202037 0.101471)
(9.38801e-05 9.38705e-05 0.101892)
(-0.000152045 9.00846e-05 0.101957)
(9.01011e-05 -0.000152052 0.101957)
(-0.000198939 -0.00019898 0.101964)
(9.1128e-05 9.11376e-05 0.102398)
(-0.000146286 8.55637e-05 0.102446)
(8.55814e-05 -0.000146297 0.102446)
(-0.000193519 -0.000193575 0.102432)
(8.81569e-05 8.81734e-05 0.102885)
(-0.000140642 8.16042e-05 0.102912)
(8.16164e-05 -0.000140645 0.102912)
(-0.000188179 -0.000188267 0.10287)
(8.53338e-05 8.53145e-05 0.103353)
(-0.000135484 7.83784e-05 0.103354)
(7.83981e-05 -0.000135489 0.103354)
(-0.000183853 -0.000183917 0.10328)
(8.28377e-05 8.28066e-05 0.103803)
(-0.000131094 7.59451e-05 0.103774)
(7.60195e-05 -0.000131105 0.103774)
(-0.000180525 -0.000180632 0.103663)
(8.06936e-05 8.05915e-05 0.104237)
(-0.000127308 7.42382e-05 0.104175)
(7.41266e-05 -0.00012725 0.104175)
(-0.000177594 -0.000177574 0.104023)
(7.87378e-05 7.859e-05 0.104658)
(-0.000124042 7.28246e-05 0.104557)
(7.27989e-05 -0.00012402 0.104557)
(-0.000176842 -0.000176844 0.104358)
(7.71485e-05 7.7116e-05 0.105066)
(-0.000121193 7.16388e-05 0.104924)
(7.15369e-05 -0.000121139 0.104924)
(-0.000177097 -0.000177201 0.104673)
(7.56674e-05 7.56426e-05 0.105464)
(-0.000119339 7.14666e-05 0.105276)
(7.14219e-05 -0.000119245 0.105276)
(-0.000175083 -0.000175141 0.104967)
(7.42575e-05 7.42035e-05 0.10585)
(-0.000116723 7.03421e-05 0.105612)
(7.00023e-05 -0.000116435 0.105612)
(-0.000176002 -0.000176185 0.105239)
(7.29468e-05 7.30701e-05 0.106227)
(-0.000115234 7.01595e-05 0.105936)
(6.89631e-05 -0.000114256 0.105937)
(-0.000172054 -0.000171959 0.105486)
(7.21394e-05 7.19165e-05 0.106596)
(-0.000110085 6.38795e-05 0.106244)
(6.67402e-05 -0.000111514 0.106243)
(-0.000173363 -0.000173491 0.105709)
(7.0058e-05 7.01823e-05 0.10696)
(-0.000111581 6.96314e-05 0.106545)
(6.93077e-05 -0.000111275 0.106545)
(-0.000174946 -0.000174843 0.105913)
(6.92595e-05 6.9396e-05 0.107309)
(-0.000107946 6.51479e-05 0.10682)
(6.43106e-05 -0.000107168 0.106821)
(-0.000171915 -0.000171875 0.106097)
(6.50777e-05 6.4775e-05 0.107651)
(-0.000103108 5.7564e-05 0.107086)
(5.9283e-05 -0.000104019 0.107086)
(-0.000177301 -0.000177528 0.106256)
(6.84921e-05 6.84299e-05 0.107985)
(-0.000105843 7.03689e-05 0.107334)
(6.73913e-05 -0.00010473 0.107335)
(-0.000152709 -0.000152919 0.106397)
(5.94004e-05 6.00923e-05 0.1083)
(-0.000102321 5.95764e-05 0.107561)
(5.09768e-05 -9.77035e-05 0.107566)
(-0.000181511 -0.00018144 0.106493)
(6.36294e-05 6.29692e-05 0.108626)
(-9.91571e-05 6.08812e-05 0.10778)
(7.16726e-05 -0.000103374 0.10778)
(-0.00016148 -0.000161672 0.106569)
(6.1744e-05 6.22665e-05 0.108929)
(-9.67882e-05 5.92805e-05 0.107973)
(5.48663e-05 -9.57048e-05 0.107972)
(-0.000145809 -0.000145604 0.106634)
(6.04921e-05 6.07367e-05 0.109227)
(-9.62472e-05 5.97734e-05 0.108153)
(5.85945e-05 -9.52716e-05 0.108154)
(-0.000161846 -0.000161734 0.106646)
(5.49756e-05 5.43455e-05 0.109513)
(-9.15998e-05 5.41721e-05 0.108312)
(5.86359e-05 -9.30953e-05 0.108312)
(-0.000149466 -0.000149948 0.10663)
(5.79031e-05 5.78795e-05 0.109795)
(-9.03368e-05 6.03739e-05 0.108453)
(5.95049e-05 -9.02401e-05 0.10845)
(-0.000138907 -0.000138993 0.10662)
(5.52444e-05 5.5296e-05 0.110065)
(-8.60268e-05 5.3114e-05 0.108573)
(5.28633e-05 -8.61213e-05 0.108572)
(-0.000136759 -0.000136729 0.106583)
(5.29358e-05 5.32307e-05 0.110323)
(-8.46255e-05 5.5864e-05 0.108676)
(5.52411e-05 -8.4522e-05 0.108676)
(-0.000130378 -0.000130122 0.106517)
(5.15702e-05 5.16207e-05 0.110573)
(-8.0144e-05 5.01495e-05 0.10876)
(5.01767e-05 -7.99559e-05 0.108761)
(-0.00012537 -0.000125361 0.106443)
(5.06217e-05 5.04192e-05 0.110814)
(-7.76774e-05 5.13848e-05 0.108828)
(5.20105e-05 -7.7957e-05 0.108827)
(-0.000119913 -0.000120171 0.106356)
(5.00556e-05 5.01629e-05 0.111043)
(-7.41588e-05 4.85993e-05 0.108877)
(4.8069e-05 -7.39898e-05 0.108876)
(-0.000114895 -0.000114837 0.106263)
(4.90131e-05 4.90331e-05 0.11126)
(-7.10072e-05 4.72613e-05 0.108912)
(4.70117e-05 -7.0873e-05 0.108912)
(-0.000109176 -0.000109193 0.106163)
(4.73635e-05 4.73748e-05 0.111466)
(-6.74189e-05 4.51286e-05 0.108932)
(4.51272e-05 -6.74006e-05 0.108932)
(-0.000103335 -0.000103329 0.10606)
(4.60259e-05 4.60372e-05 0.11166)
(-6.35358e-05 4.20845e-05 0.108939)
(4.21919e-05 -6.35982e-05 0.108938)
(-9.90462e-05 -9.90645e-05 0.105956)
(4.53992e-05 4.5421e-05 0.111844)
(-5.98525e-05 3.94835e-05 0.108933)
(3.94981e-05 -5.98711e-05 0.108933)
(-9.42387e-05 -9.42747e-05 0.105852)
(4.40304e-05 4.40481e-05 0.112014)
(-5.6377e-05 3.71388e-05 0.108918)
(3.71311e-05 -5.63786e-05 0.108917)
(-8.93941e-05 -8.94256e-05 0.105751)
(4.31623e-05 4.31791e-05 0.112172)
(-5.30507e-05 3.48985e-05 0.108892)
(3.48593e-05 -5.30504e-05 0.108891)
(-8.42049e-05 -8.42351e-05 0.105649)
(4.19307e-05 4.19571e-05 0.112318)
(-4.95448e-05 3.2322e-05 0.108859)
(3.22777e-05 -4.95425e-05 0.108858)
(-8.06979e-05 -8.07209e-05 0.105553)
(4.08593e-05 4.08754e-05 0.112452)
(-4.60689e-05 2.95498e-05 0.108819)
(2.95416e-05 -4.60477e-05 0.108818)
(-7.5929e-05 -7.59549e-05 0.105458)
(3.96029e-05 3.96287e-05 0.112573)
(-4.29125e-05 2.75171e-05 0.108773)
(2.73099e-05 -4.28306e-05 0.108772)
(-7.24959e-05 -7.2519e-05 0.105368)
(3.82242e-05 3.82432e-05 0.112682)
(-3.96236e-05 2.52359e-05 0.108723)
(2.53461e-05 -3.96536e-05 0.108722)
(-6.90959e-05 -6.91133e-05 0.105281)
(3.6762e-05 3.67868e-05 0.112779)
(-3.63313e-05 2.25457e-05 0.10867)
(2.25788e-05 -3.63367e-05 0.108669)
(-6.54965e-05 -6.55108e-05 0.105197)
(3.52401e-05 3.52634e-05 0.112864)
(-3.31627e-05 2.03529e-05 0.108614)
(2.03433e-05 -3.31575e-05 0.108613)
(-6.25167e-05 -6.25346e-05 0.105118)
(3.35114e-05 3.35321e-05 0.112937)
(-3.0361e-05 1.88226e-05 0.108557)
(1.87267e-05 -3.0329e-05 0.108556)
(-5.96853e-05 -5.97016e-05 0.105042)
(3.18058e-05 3.18266e-05 0.113)
(-2.7297e-05 1.66041e-05 0.108498)
(1.66083e-05 -2.728e-05 0.108497)
(-5.696e-05 -5.69722e-05 0.10497)
(2.98647e-05 2.9871e-05 0.113052)
(-2.45331e-05 1.47708e-05 0.10844)
(1.47695e-05 -2.45415e-05 0.108439)
(-5.42156e-05 -5.42389e-05 0.104902)
(2.80174e-05 2.80381e-05 0.113094)
(-2.1725e-05 1.3198e-05 0.108382)
(1.31822e-05 -2.17055e-05 0.108381)
(-5.23973e-05 -5.24033e-05 0.104838)
(2.6061e-05 2.60666e-05 0.113127)
(-1.93294e-05 1.15755e-05 0.108325)
(1.15754e-05 -1.93343e-05 0.108324)
(-4.97013e-05 -4.97208e-05 0.104776)
(0.000134959 0.000134949 0.100282)
(0.000124248 0.000152867 0.100229)
(-0.00012424 0.000152848 0.100229)
(-0.000134956 0.000134917 0.100282)
(0.000152896 0.0001242 0.100229)
(0.000152868 -0.000124217 0.100229)
(9.08046e-05 9.07529e-05 0.100151)
(-9.07949e-05 9.07504e-05 0.100151)
(9.07789e-05 -9.07988e-05 0.100151)
(-9.07765e-05 -9.07968e-05 0.100151)
(-0.000152892 0.000124196 0.100229)
(-0.000152877 -0.000124213 0.100229)
(0.000134949 -0.000134968 0.100282)
(0.000124201 -0.000152897 0.100229)
(-0.000124198 -0.00015288 0.100229)
(-0.000134957 -0.000134941 0.100282)
(0.000239636 0.000239615 0.100397)
(0.000111304 0.000111178 0.100892)
(0.000119392 0.000190088 0.100385)
(-0.000119343 0.000190129 0.100385)
(8.91024e-05 0.000147213 0.100823)
(-8.9064e-05 0.00014721 0.100823)
(-0.000239645 0.000239563 0.100397)
(-0.000111266 0.000111145 0.100892)
(0.000190231 0.000119289 0.100385)
(0.000190169 -0.000119349 0.100385)
(0.000147189 8.90737e-05 0.100823)
(0.000147222 -8.90949e-05 0.100823)
(-0.000190151 -0.000119353 0.100385)
(-0.000147159 8.90749e-05 0.100823)
(-0.00014718 -8.9089e-05 0.100823)
(0.000239566 -0.000239657 0.100397)
(0.000111257 -0.00011127 0.100892)
(-0.000119321 -0.000190216 0.100385)
(8.90759e-05 -0.000147148 0.100823)
(-8.90554e-05 -0.000147174 0.100823)
(-0.000111255 -0.000111273 0.100892)
(0.000201134 0.000200967 0.100968)
(0.000105726 0.000105642 0.101395)
(9.68198e-05 0.000158993 0.100941)
(-9.67929e-05 0.000158989 0.100941)
(9.42001e-05 0.000156672 0.10132)
(-9.42003e-05 0.000156672 0.10132)
(-0.000201096 0.000200935 0.100967)
(-0.000105715 0.000105638 0.101395)
(0.000158972 9.68004e-05 0.100942)
(0.00015899 -9.68129e-05 0.100942)
(0.000156627 9.42041e-05 0.10132)
(0.000156668 -9.42075e-05 0.10132)
(-0.000158967 -9.68079e-05 0.100942)
(-0.000156624 9.4213e-05 0.10132)
(-0.000156645 -9.41975e-05 0.10132)
(0.000201043 -0.000201107 0.100968)
(0.000105693 -0.000105707 0.101395)
(-9.6793e-05 -0.000158961 0.100942)
(9.42011e-05 -0.000156624 0.10132)
(-9.42069e-05 -0.000156644 0.10132)
(-0.000105699 -0.000105708 0.101395)
(0.000202052 0.000201932 0.101471)
(9.65876e-05 9.65546e-05 0.101893)
(9.34495e-05 0.000155854 0.101449)
(-9.34537e-05 0.000155851 0.101449)
(9.11449e-05 0.000153336 0.101832)
(-9.11355e-05 0.000153328 0.101832)
(-0.00020205 0.000201917 0.101471)
(-9.66257e-05 9.65749e-05 0.101892)
(0.000155804 9.34627e-05 0.101449)
(0.000155845 -9.34582e-05 0.101449)
(0.000153279 9.11492e-05 0.101832)
(0.000153308 -9.11322e-05 0.101832)
(-0.000155828 -9.34517e-05 0.101449)
(-0.000153273 9.11429e-05 0.101832)
(-0.000153313 -9.11378e-05 0.101832)
(0.000201973 -0.000202045 0.101471)
(9.65901e-05 -9.66041e-05 0.101893)
(-9.34643e-05 -0.000155827 0.101449)
(9.11487e-05 -0.000153275 0.101832)
(-9.11389e-05 -0.000153287 0.101832)
(-9.66279e-05 -9.66249e-05 0.101893)
(0.000199003 0.000198875 0.101964)
(8.60367e-05 8.5943e-05 0.102366)
(9.00959e-05 0.000152111 0.101957)
(-9.00832e-05 0.000152096 0.101957)
(8.66998e-05 0.000147829 0.102326)
(-8.66823e-05 0.000147828 0.102326)
(-0.000198953 0.000198865 0.101964)
(-8.60777e-05 8.61085e-05 0.102366)
(0.000152051 9.00971e-05 0.101957)
(0.000152088 -9.00821e-05 0.101957)
(0.000147776 8.6693e-05 0.102326)
(0.000147802 -8.66804e-05 0.102326)
(-0.000152082 -9.00872e-05 0.101957)
(-0.000147774 8.66915e-05 0.102326)
(-0.000147814 -8.66695e-05 0.102326)
(0.00019884 -0.000198962 0.101964)
(8.60448e-05 -8.61406e-05 0.102366)
(-9.00854e-05 -0.000152053 0.101957)
(8.6697e-05 -0.000147771 0.102326)
(-8.66671e-05 -0.000147773 0.102326)
(-8.59927e-05 -8.59787e-05 0.102366)
(0.000193724 0.0001936 0.102432)
(7.60798e-05 7.59175e-05 0.102811)
(8.5568e-05 0.000146354 0.102446)
(-8.55661e-05 0.000146344 0.102446)
(8.25416e-05 0.000142056 0.102797)
(-8.25112e-05 0.000142053 0.102797)
(-0.000193605 0.000193512 0.102432)
(-7.60288e-05 7.60135e-05 0.102812)
(0.000146297 8.55762e-05 0.102446)
(0.000146329 -8.55445e-05 0.102446)
(0.000141999 8.25326e-05 0.102798)
(0.000142029 -8.2512e-05 0.102798)
(-0.000146335 -8.55825e-05 0.102446)
(-0.000141985 8.25185e-05 0.102798)
(-0.000142039 -8.24975e-05 0.102798)
(0.000193463 -0.000193589 0.102432)
(7.60236e-05 -7.61819e-05 0.102812)
(-8.55778e-05 -0.000146292 0.102446)
(8.2537e-05 -0.000141991 0.102798)
(-8.24942e-05 -0.000141992 0.102798)
(-7.59002e-05 -7.58922e-05 0.102812)
(0.000188458 0.000188367 0.10287)
(6.71146e-05 6.72191e-05 0.103229)
(8.1575e-05 0.000140682 0.102912)
(-8.16002e-05 0.000140701 0.102912)
(7.91334e-05 0.000136785 0.103245)
(-7.91223e-05 0.000136774 0.103245)
(-0.000188175 0.000188151 0.102871)
(-6.72173e-05 6.71374e-05 0.103229)
(0.000140628 8.15829e-05 0.102912)
(0.000140668 -8.15705e-05 0.102912)
(0.000136731 7.91559e-05 0.103245)
(0.000136755 -7.90964e-05 0.103245)
(-0.000140675 -8.15985e-05 0.102912)
(-0.000136711 7.91316e-05 0.103245)
(-0.000136752 -7.91206e-05 0.103245)
(0.000188094 -0.000188165 0.102871)
(6.72402e-05 -6.72805e-05 0.10323)
(-8.15971e-05 -0.00014062 0.102912)
(7.91592e-05 -0.000136715 0.103245)
(-7.91094e-05 -0.000136702 0.103245)
(-6.68719e-05 -6.69594e-05 0.103229)
(0.000183845 0.000183818 0.103281)
(5.93745e-05 5.97538e-05 0.10362)
(7.84144e-05 0.000135547 0.103354)
(-7.83618e-05 0.000135543 0.103354)
(7.65031e-05 0.000132174 0.103671)
(-7.64063e-05 0.000132105 0.103671)
(-0.00018367 0.0001836 0.103281)
(-5.91527e-05 5.91596e-05 0.103621)
(0.000135497 7.83933e-05 0.103354)
(0.000135508 -7.8365e-05 0.103354)
(0.000132143 7.65752e-05 0.103671)
(0.000132106 -7.63802e-05 0.103671)
(-0.000135548 -7.83902e-05 0.103354)
(-0.000132047 7.6441e-05 0.103671)
(-0.000132166 -7.65352e-05 0.103671)
(0.00018352 -0.000183502 0.103281)
(5.9116e-05 -5.90068e-05 0.103621)
(-7.83963e-05 -0.000135505 0.103354)
(7.64804e-05 -0.000132081 0.103671)
(-7.6538e-05 -0.000132108 0.103671)
(-5.89798e-05 -5.90016e-05 0.10362)
(0.000180322 0.000180168 0.103665)
(5.16323e-05 5.2244e-05 0.103988)
(7.58945e-05 0.000131073 0.103774)
(-7.59657e-05 0.000131157 0.103774)
(7.4585e-05 0.000128223 0.104076)
(-7.47711e-05 0.000128327 0.104076)
(-0.000179918 0.00017979 0.103664)
(-5.24275e-05 5.2544e-05 0.103986)
(0.000131001 7.58506e-05 0.103774)
(0.000131126 -7.60093e-05 0.103774)
(0.000128192 7.45849e-05 0.104076)
(0.000128333 -7.47576e-05 0.104076)
(-0.000131096 -7.59156e-05 0.103774)
(-0.000128252 7.47107e-05 0.104076)
(-0.00012818 -7.45534e-05 0.104076)
(0.000179796 -0.000179754 0.103664)
(5.33475e-05 -5.30234e-05 0.103986)
(-7.59184e-05 -0.000131047 0.103774)
(7.47807e-05 -0.000128243 0.104076)
(-7.4534e-05 -0.000128102 0.104076)
(-5.23971e-05 -5.22467e-05 0.103989)
(0.000177776 0.00017779 0.104022)
(4.67035e-05 4.73096e-05 0.104333)
(7.44661e-05 0.000127452 0.104174)
(-7.43187e-05 0.000127382 0.104174)
(7.32634e-05 0.000124897 0.104463)
(-7.32699e-05 0.000124918 0.104463)
(-0.000179048 0.000179093 0.104022)
(-4.66484e-05 4.66884e-05 0.104333)
(0.000127382 7.43293e-05 0.104174)
(0.000127304 -7.4248e-05 0.104175)
(0.000124901 7.32812e-05 0.104463)
(0.000124907 -7.32694e-05 0.104463)
(-0.000127401 -7.42793e-05 0.104174)
(-0.000124833 7.32144e-05 0.104463)
(-0.000124891 -7.31996e-05 0.104463)
(0.000179134 -0.000178569 0.104023)
(4.66466e-05 -4.66096e-05 0.104332)
(-7.42167e-05 -0.000127333 0.104174)
(7.32216e-05 -0.00012485 0.104463)
(-7.31493e-05 -0.000124831 0.104463)
(-4.65747e-05 -4.65847e-05 0.104333)
(0.000176597 0.000176712 0.104359)
(4.18344e-05 4.21331e-05 0.104656)
(7.31355e-05 0.000124204 0.104557)
(-7.29124e-05 0.000124115 0.104557)
(7.21597e-05 0.000122023 0.104834)
(-7.21226e-05 0.000122001 0.104834)
(-0.000176646 0.000176654 0.104358)
(-4.14561e-05 4.14445e-05 0.104657)
(0.000124164 7.29544e-05 0.104557)
(0.000124097 -7.28997e-05 0.104557)
(0.00012196 7.21447e-05 0.104834)
(0.000121862 -7.19363e-05 0.104834)
(-0.000124254 -7.3104e-05 0.104557)
(-0.000121927 7.20253e-05 0.104834)
(-0.000122048 -7.21528e-05 0.104834)
(0.000177079 -0.000176869 0.104358)
(4.15575e-05 -4.13875e-05 0.104657)
(-7.30496e-05 -0.000124215 0.104557)
(7.19268e-05 -0.000121824 0.104834)
(-7.21091e-05 -0.000121956 0.104834)
(-4.20005e-05 -4.20044e-05 0.104656)
(0.000176791 0.000176819 0.104672)
(3.69202e-05 3.68797e-05 0.10496)
(7.1871e-05 0.000121374 0.104924)
(-7.16944e-05 0.000121268 0.104924)
(7.15062e-05 0.000119742 0.105189)
(-7.08278e-05 0.000119296 0.10519)
(-0.00017646 0.000176236 0.104672)
(-3.61335e-05 3.63928e-05 0.104963)
(0.000121223 7.17947e-05 0.104924)
(0.00012118 -7.16366e-05 0.104924)
(0.000119683 7.14663e-05 0.10519)
(0.000119364 -7.07992e-05 0.10519)
(-0.00012121 -7.16142e-05 0.104924)
(-0.000119253 7.08127e-05 0.10519)
(-0.000119589 -7.121e-05 0.10519)
(0.000176127 -0.000175796 0.104673)
(3.56892e-05 -3.56914e-05 0.104963)
(-7.15876e-05 -0.000121106 0.104925)
(7.08006e-05 -0.000119252 0.10519)
(-7.11853e-05 -0.000119472 0.10519)
(-3.61341e-05 -3.60981e-05 0.104963)
(0.000176953 0.00017699 0.104965)
(3.39005e-05 3.3696e-05 0.105245)
(6.99527e-05 0.000118151 0.105277)
(-7.15297e-05 0.00011935 0.105276)
(7.07399e-05 0.000117145 0.10553)
(-6.8483e-05 0.000116399 0.105531)
(-0.000174934 0.000175009 0.104968)
(-2.77522e-05 2.81123e-05 0.105248)
(0.000118052 6.98889e-05 0.105277)
(0.000119327 -7.14547e-05 0.105276)
(0.000117121 7.06159e-05 0.10553)
(0.000116387 -6.87521e-05 0.10553)
(-0.000118578 -7.04518e-05 0.105277)
(-0.000116152 6.85668e-05 0.105531)
(-0.000116783 -6.99772e-05 0.10553)
(0.000174739 -0.000174694 0.104967)
(2.85384e-05 -2.85485e-05 0.105246)
(-7.03942e-05 -0.000118486 0.105277)
(6.87546e-05 -0.000116263 0.105531)
(-6.984e-05 -0.000116788 0.10553)
(-3.2497e-05 -3.2634e-05 0.105244)
(0.000176516 0.00017625 0.10524)
(2.42698e-05 2.43175e-05 0.105509)
(7.06767e-05 0.00011682 0.105614)
(-7.03435e-05 0.000116834 0.105612)
(6.8689e-05 0.000114516 0.105857)
(-6.76631e-05 0.000113848 0.105858)
(-0.000172649 0.000172692 0.105237)
(-2.53447e-05 2.54397e-05 0.10551)
(0.000116818 7.05816e-05 0.105614)
(0.000116507 -6.99928e-05 0.105612)
(0.000114456 6.85834e-05 0.105857)
(0.000114051 -6.81125e-05 0.105858)
(-0.000116924 -7.073e-05 0.105613)
(-0.000113808 6.75739e-05 0.105858)
(-0.000114198 -6.80393e-05 0.105858)
(0.000174122 -0.000174209 0.105236)
(2.72981e-05 -2.71559e-05 0.10551)
(-7.06517e-05 -0.000116891 0.105613)
(6.81375e-05 -0.000113896 0.105858)
(-6.80157e-05 -0.000114041 0.105858)
(-2.33697e-05 -2.32077e-05 0.105511)
(0.000174178 0.000174182 0.105485)
(2.07295e-05 2.08122e-05 0.105749)
(6.94626e-05 0.00011442 0.105935)
(-7.01341e-05 0.000115309 0.105936)
(6.87859e-05 0.000112729 0.106169)
(-6.23693e-05 0.000108438 0.106173)
(-0.000174245 0.000174345 0.105488)
(-1.66911e-05 1.67823e-05 0.105756)
(0.000114297 6.95355e-05 0.105936)
(0.000114405 -6.89134e-05 0.105937)
(0.000112674 6.86436e-05 0.106169)
(0.000109883 -6.47635e-05 0.106171)
(-0.000114731 -6.97282e-05 0.105935)
(-0.000108367 6.22125e-05 0.106173)
(-0.000111981 -6.77658e-05 0.106168)
(0.000174265 -0.000174202 0.105491)
(1.75521e-05 -1.76493e-05 0.105754)
(-6.97918e-05 -0.000114584 0.105935)
(6.44887e-05 -0.000109937 0.106171)
(-6.75362e-05 -0.00011197 0.106169)
(-1.79221e-05 -1.79282e-05 0.105749)
(0.000176467 0.000176407 0.105711)
(1.86676e-05 1.88491e-05 0.105968)
(6.89073e-05 0.000111898 0.106245)
(-6.44339e-05 0.000109894 0.106244)
(6.67748e-05 0.000110488 0.106469)
(-7.56494e-05 0.000114078 0.10647)
(-0.000165547 0.000165357 0.105719)
(-2.99436e-05 2.94165e-05 0.105967)
(0.000111936 6.85465e-05 0.106245)
(0.000111294 -6.73322e-05 0.106243)
(0.000110384 6.68583e-05 0.10647)
(0.000113945 -7.42631e-05 0.10647)
(-0.000113298 -7.12444e-05 0.106241)
(-0.000114482 7.48275e-05 0.106471)
(-0.000112362 -6.93913e-05 0.106471)
(0.000168151 -0.000168442 0.105715)
(2.39121e-05 -2.42488e-05 0.105966)
(-7.08622e-05 -0.000113344 0.106242)
(7.34739e-05 -0.000114295 0.10647)
(-6.94853e-05 -0.000112171 0.106471)
(-1.95936e-05 -1.93735e-05 0.105964)
(0.00017619 0.000176294 0.105918)
(1.26468e-05 1.2863e-05 0.106168)
(6.59227e-05 0.000109522 0.106544)
(-6.99377e-05 0.000111406 0.106545)
(6.55379e-05 0.000108161 0.106753)
(-6.19525e-05 0.00010796 0.106753)
(-0.000180149 0.000179705 0.105916)
(-3.95437e-06 4.57827e-06 0.106165)
(0.000109394 6.59556e-05 0.106544)
(0.000111157 -6.96081e-05 0.106544)
(0.000108012 6.56028e-05 0.106754)
(0.000107875 -6.19942e-05 0.106752)
(-0.00010889 -6.41236e-05 0.106546)
(-0.000107456 6.25724e-05 0.106753)
(-0.000106971 -6.24921e-05 0.106752)
(0.00017812 -0.000178424 0.105913)
(3.41864e-06 -2.75647e-06 0.106164)
(-6.41547e-05 -0.000108659 0.106546)
(6.25858e-05 -0.000107369 0.106753)
(-6.25198e-05 -0.00010673 0.106752)
(-7.48864e-06 -7.29718e-06 0.106164)
(0.000173464 0.000173507 0.106099)
(5.90911e-06 5.80794e-06 0.106341)
(6.72478e-05 0.00010887 0.106822)
(-6.46347e-05 0.00010845 0.10682)
(6.22257e-05 0.000104606 0.107023)
(-5.83372e-05 0.000103448 0.107023)
(-0.000165404 0.000165853 0.106095)
(2.52169e-06 -2.64501e-06 0.106347)
(0.000108762 6.72917e-05 0.106822)
(0.000107648 -6.38128e-05 0.10682)
(0.000104654 6.19603e-05 0.107024)
(0.000103883 -5.9157e-05 0.107022)
(-0.000106702 -6.36306e-05 0.106821)
(-0.000103426 5.77227e-05 0.107024)
(-0.00010884 -7.01257e-05 0.107021)
(0.000166616 -0.00016615 0.106095)
(-4.08389e-07 2.92593e-07 0.106346)
(-6.36441e-05 -0.000106516 0.106821)
(5.85201e-05 -0.000103864 0.107023)
(-6.98224e-05 -0.000108823 0.107021)
(-1.45424e-05 -1.46454e-05 0.106341)
(0.000164532 0.000164291 0.106256)
(1.43438e-05 1.42338e-05 0.10649)
(5.74657e-05 0.000101878 0.107087)
(-5.83195e-05 0.000103035 0.107086)
(7.22365e-05 0.000109001 0.107269)
(-6.76527e-05 0.000107148 0.107272)
(-0.000159614 0.000159334 0.106261)
(-8.89298e-06 1.026e-05 0.106502)
(0.000102029 5.71067e-05 0.107087)
(0.000103945 -6.00654e-05 0.107086)
(0.000109089 7.19846e-05 0.10727)
(0.000105553 -6.55984e-05 0.107273)
(-0.000107662 -6.8122e-05 0.107088)
(-0.000106063 6.97742e-05 0.107273)
(-9.69929e-05 -4.9095e-05 0.107274)
(0.000163606 -0.000163898 0.10626)
(1.20972e-05 -1.07552e-05 0.106498)
(-6.77224e-05 -0.000107735 0.107088)
(6.7702e-05 -0.000104492 0.107273)
(-4.88045e-05 -9.70516e-05 0.107274)
(1.34292e-05 1.32488e-05 0.106499)
(0.000179969 0.000179809 0.106386)
(-1.9602e-05 -1.95263e-05 0.10662)
(7.0612e-05 0.000107493 0.107334)
(-6.85931e-05 0.000106856 0.107334)
(4.69648e-05 9.50438e-05 0.107509)
(-5.46076e-05 9.71411e-05 0.107509)
(-0.000174968 0.000176165 0.106396)
(1.07147e-05 -1.27127e-05 0.106622)
(0.000107559 7.04864e-05 0.107334)
(0.000105721 -6.56302e-05 0.107335)
(9.50383e-05 4.67766e-05 0.107509)
(9.7714e-05 -5.70282e-05 0.10751)
(-9.92894e-05 -5.31268e-05 0.107331)
(-9.85114e-05 5.12539e-05 0.10751)
(-0.00010826 -7.77853e-05 0.107508)
(0.000176128 -0.000174999 0.106394)
(-4.54077e-06 2.6166e-06 0.106617)
(-5.29525e-05 -9.92956e-05 0.107332)
(5.36602e-05 -9.90501e-05 0.107511)
(-7.75734e-05 -0.000108186 0.107509)
(-2.06395e-05 -2.0635e-05 0.106618)
(0.000148856 0.000148968 0.106498)
(1.06455e-05 1.08494e-05 0.106717)
(5.49249e-05 9.93112e-05 0.10756)
(-6.21717e-05 0.000100999 0.10756)
(6.90972e-05 0.000102348 0.10773)
(-6.672e-05 0.000102444 0.107728)
(-0.000156606 0.000154635 0.106497)
(-6.80619e-06 7.9702e-06 0.106706)
(9.90761e-05 5.54685e-05 0.10756)
(9.63882e-05 -5.35433e-05 0.107565)
(0.000102132 6.89836e-05 0.10773)
(0.000105552 -7.3448e-05 0.107724)
(-0.000102457 -6.64136e-05 0.107568)
(-0.000101648 6.81149e-05 0.107729)
(-0.000101551 -5.9348e-05 0.107723)
(0.000157577 -0.000159562 0.106497)
(1.6178e-05 -1.49358e-05 0.106712)
(-6.69375e-05 -0.000102148 0.107568)
(7.47936e-05 -0.000104774 0.107725)
(-5.91988e-05 -0.000101265 0.107723)
(1.00972e-05 1.0233e-05 0.106706)
(0.000169683 0.000169531 0.106573)
(-4.38596e-06 -4.16664e-06 0.106774)
(5.95638e-05 9.79481e-05 0.107784)
(-6.00929e-05 9.99995e-05 0.10778)
(6.28211e-05 9.97371e-05 0.107923)
(-5.56664e-05 9.7495e-05 0.107926)
(-0.000165088 0.000166143 0.106562)
(1.13294e-05 -1.04025e-05 0.106778)
(9.81172e-05 5.86911e-05 0.107784)
(0.000104219 -7.09358e-05 0.107779)
(9.96753e-05 6.31012e-05 0.107924)
(9.59023e-05 -5.06704e-05 0.107926)
(-0.000102152 -6.44506e-05 0.107777)
(-9.66985e-05 5.69493e-05 0.107926)
(-9.33762e-05 -4.98035e-05 0.107931)
(0.000180585 -0.00017955 0.106569)
(-1.91473e-05 2.00721e-05 0.106772)
(-6.3559e-05 -0.000102231 0.107778)
(5.1941e-05 -9.51233e-05 0.107927)
(-5.00218e-05 -9.32316e-05 0.107931)
(1.9491e-05 1.96333e-05 0.10679)
(0.000164622 0.000164861 0.106618)
(-8.32164e-06 -8.05057e-06 0.106812)
(6.20594e-05 9.78871e-05 0.107973)
(-5.81593e-05 9.76369e-05 0.107973)
(6.23489e-05 9.79826e-05 0.108106)
(-5.94243e-05 9.54825e-05 0.10811)
(-0.000154398 0.000155221 0.106623)
(9.45916e-06 -1.02099e-05 0.106825)
(9.75916e-05 6.25991e-05 0.107974)
(9.65014e-05 -5.37802e-05 0.107972)
(9.77355e-05 6.26875e-05 0.108106)
(9.45605e-05 -5.84609e-05 0.108112)
(-9.58402e-05 -5.495e-05 0.107974)
(-9.58417e-05 5.83659e-05 0.108111)
(-9.80776e-05 -6.76464e-05 0.108111)
(0.000146269 -0.000145528 0.106619)
(-1.08806e-05 1.01151e-05 0.106834)
(-5.54493e-05 -9.5456e-05 0.107974)
(5.73787e-05 -9.498e-05 0.108112)
(-6.78987e-05 -9.77525e-05 0.108111)
(-3.87925e-06 -3.63162e-06 0.106824)
(0.000157568 0.000157632 0.106639)
(-2.27977e-05 -2.31472e-05 0.106835)
(6.38974e-05 9.78453e-05 0.10815)
(-6.07395e-05 9.57328e-05 0.108152)
(4.94838e-05 8.95586e-05 0.108274)
(-5.62939e-05 9.17274e-05 0.108274)
(-0.000153433 0.000152516 0.10665)
(1.48607e-05 -1.58037e-05 0.106836)
(9.7715e-05 6.40768e-05 0.10815)
(9.47349e-05 -5.96144e-05 0.108153)
(8.98146e-05 4.87681e-05 0.108274)
(9.38368e-05 -6.13745e-05 0.108274)
(-9.61872e-05 -6.31809e-05 0.108153)
(-9.23762e-05 5.4643e-05 0.108275)
(-9.46855e-05 -6.03058e-05 0.108269)
(0.000151259 -0.000152199 0.106659)
(-1.04562e-05 9.54545e-06 0.106835)
(-6.32943e-05 -9.59231e-05 0.108153)
(5.97046e-05 -9.45312e-05 0.108275)
(-5.95666e-05 -9.48558e-05 0.108269)
(1.06513e-05 1.02429e-05 0.106815)
(0.000137937 0.00013744 0.106649)
(-7.53806e-06 -7.58238e-06 0.106828)
(5.34586e-05 9.10181e-05 0.108309)
(-5.54446e-05 9.10316e-05 0.108311)
(6.26683e-05 9.23951e-05 0.108419)
(-6.00827e-05 9.21973e-05 0.108418)
(-0.000144867 0.000143919 0.106649)
(9.40628e-06 -8.47583e-06 0.106826)
(9.13732e-05 5.26641e-05 0.10831)
(9.2523e-05 -5.99249e-05 0.108311)
(9.24997e-05 6.25006e-05 0.10842)
(9.17711e-05 -5.84986e-05 0.108415)
(-9.34319e-05 -5.92292e-05 0.108307)
(-9.15496e-05 6.11515e-05 0.108419)
(-8.94056e-05 -5.29438e-05 0.108416)
(0.000150244 -0.000151178 0.106647)
(-1.108e-05 1.20563e-05 0.106815)
(-5.84194e-05 -9.369e-05 0.108308)
(5.95553e-05 -9.11774e-05 0.108417)
(-5.27699e-05 -8.94438e-05 0.108416)
(2.0048e-05 1.99497e-05 0.106817)
(0.000148022 0.000147921 0.106624)
(-1.73137e-05 -1.72219e-05 0.106782)
(6.01411e-05 9.10281e-05 0.108452)
(-5.93695e-05 9.10967e-05 0.108452)
(5.64967e-05 8.86755e-05 0.108542)
(-5.45151e-05 8.76904e-05 0.108543)
(-0.000148774 0.000149664 0.106626)
(1.6581e-05 -1.63199e-05 0.106783)
(9.10544e-05 6.00354e-05 0.108452)
(9.09935e-05 -5.8519e-05 0.108449)
(8.86472e-05 5.63427e-05 0.108543)
(8.80747e-05 -5.51121e-05 0.108541)
(-9.01059e-05 -5.57866e-05 0.108448)
(-8.73499e-05 5.4703e-05 0.108544)
(-8.76595e-05 -5.53861e-05 0.108545)
(0.000147596 -0.000146692 0.106616)
(-1.58573e-05 1.61838e-05 0.106776)
(-5.56986e-05 -9.00884e-05 0.108449)
(5.52946e-05 -8.77737e-05 0.108542)
(-5.52465e-05 -8.75799e-05 0.108546)
(1.7259e-05 1.73005e-05 0.106793)
(0.000138028 0.000138041 0.106573)
(-2.18027e-05 -2.14318e-05 0.106734)
(5.76184e-05 8.83707e-05 0.10857)
(-5.31102e-05 8.62506e-05 0.108572)
(5.20592e-05 8.42172e-05 0.10865)
(-5.70373e-05 8.56259e-05 0.10865)
(-0.000137481 0.000137597 0.106575)
(1.31083e-05 -1.32947e-05 0.106734)
(8.83268e-05 5.7554e-05 0.108571)
(8.63278e-05 -5.28618e-05 0.108571)
(8.39346e-05 5.23091e-05 0.108651)
(8.50221e-05 -5.52481e-05 0.10865)
(-8.81817e-05 -5.73621e-05 0.108572)
(-8.56436e-05 5.66378e-05 0.108652)
(-8.45321e-05 -5.35852e-05 0.108652)
(0.000137744 -0.000137639 0.10657)
(-1.50615e-05 1.49403e-05 0.106735)
(-5.73248e-05 -8.80696e-05 0.108573)
(5.48495e-05 -8.50856e-05 0.108651)
(-5.38625e-05 -8.42612e-05 0.108652)
(1.8923e-05 1.92325e-05 0.106735)
(0.000129591 0.000129867 0.106517)
(-2.15942e-05 -2.14758e-05 0.106668)
(5.5089e-05 8.51389e-05 0.108673)
(-5.61572e-05 8.46181e-05 0.108675)
(5.06843e-05 8.06801e-05 0.108741)
(-5.21576e-05 8.16106e-05 0.108738)
(-0.000137098 0.00013688 0.106517)
(1.94225e-05 -1.94588e-05 0.106661)
(8.48611e-05 5.52804e-05 0.108674)
(8.44701e-05 -5.55322e-05 0.108675)
(8.0538e-05 5.07347e-05 0.108742)
(8.09231e-05 -5.11593e-05 0.10874)
(-8.4657e-05 -5.43592e-05 0.108674)
(-8.15319e-05 5.19225e-05 0.10874)
(-8.15833e-05 -5.24301e-05 0.10874)
(0.000135762 -0.000136003 0.106519)
(-2.03682e-05 2.0406e-05 0.106666)
(-5.45884e-05 -8.43568e-05 0.108675)
(5.09259e-05 -8.08724e-05 0.108741)
(-5.25039e-05 -8.14463e-05 0.108741)
(2.01836e-05 2.02913e-05 0.106666)
(0.000123629 0.000123624 0.106444)
(-1.98922e-05 -2.00707e-05 0.106584)
(5.19225e-05 8.08405e-05 0.108759)
(-5.03739e-05 8.02226e-05 0.108758)
(5.13871e-05 7.82033e-05 0.108812)
(-5.21905e-05 7.88169e-05 0.108811)
(-0.000126278 0.000126188 0.106439)
(1.88424e-05 -1.87666e-05 0.106586)
(8.07254e-05 5.18332e-05 0.10876)
(7.9989e-05 -5.03883e-05 0.108759)
(7.83222e-05 5.09699e-05 0.108812)
(7.94203e-05 -5.39753e-05 0.10881)
(-8.12282e-05 -5.2907e-05 0.108759)
(-7.86614e-05 5.21511e-05 0.108812)
(-7.83152e-05 -5.11179e-05 0.108811)
(0.00012512 -0.000125219 0.106444)
(-1.70229e-05 1.71782e-05 0.106584)
(-5.28568e-05 -8.11217e-05 0.108759)
(5.39269e-05 -7.92861e-05 0.108812)
(-5.07211e-05 -7.84313e-05 0.108812)
(2.20143e-05 2.18135e-05 0.106584)
(0.000120556 0.000120277 0.106356)
(-2.0537e-05 -2.03696e-05 0.106493)
(4.89949e-05 7.67372e-05 0.108827)
(-5.15529e-05 7.78333e-05 0.108827)
(5.10666e-05 7.59372e-05 0.108865)
(-5.00836e-05 7.55417e-05 0.108864)
(-0.000123666 0.00012366 0.106359)
(2.2312e-05 -2.22739e-05 0.106492)
(7.68452e-05 4.86568e-05 0.108828)
(7.80792e-05 -5.21731e-05 0.108826)
(7.58472e-05 5.10609e-05 0.108866)
(7.5214e-05 -4.90421e-05 0.108863)
(-7.77329e-05 -5.09853e-05 0.108825)
(-7.54433e-05 5.00456e-05 0.108866)
(-7.52297e-05 -4.92872e-05 0.108865)
(0.000124538 -0.00012452 0.106356)
(-2.31329e-05 2.32372e-05 0.106489)
(-5.06705e-05 -7.7835e-05 0.108826)
(4.89942e-05 -7.51305e-05 0.108865)
(-4.93211e-05 -7.51525e-05 0.108866)
(2.34195e-05 2.35432e-05 0.106492)
(0.000117538 0.000117607 0.106263)
(-2.43902e-05 -2.42848e-05 0.106395)
(4.89828e-05 7.4326e-05 0.108877)
(-4.87038e-05 7.43018e-05 0.108876)