/*--------------------------------*- C++ -*----------------------------------*\
| =========                 |                                                 |
| \\      /  F ield         | OpenFOAM: The Open Source CFD Toolbox           |
|  \\    /   O peration     | Version:  v2012                                 |
|   \\  /    A nd           | Website:  www.openfoam.com                      |
|    \\/     M anipulation  |                                                 |
\*---------------------------------------------------------------------------*/
FoamFile
{
    version     2.0;
    format      ascii;
    class       volScalarField;
    location    "0.315";
    object      p;
}
// * * * * * * * * * * * * * * * * * * * * * * * * * * * * * * * * * * * * * //

dimensions      [0 2 -2 0 0 0 0];


internalField   nonuniform List<scalar> 
247104
(
1.8575e-06
1.85743e-06
1.85757e-06
1.85753e-06
1.85743e-06
1.85755e-06
1.85755e-06
1.85736e-06
1.85742e-06
1.85748e-06
1.85754e-06
1.85739e-06
1.85729e-06
1.85741e-06
1.85755e-06
1.85746e-06
1.85757e-06
1.85754e-06
1.85723e-06
1.85687e-06
1.85672e-06
1.85691e-06
1.85728e-06
1.85756e-06
1.85757e-06
1.85753e-06
1.85738e-06
1.85687e-06
1.85638e-06
1.8562e-06
1.85643e-06
1.85694e-06
1.85743e-06
1.85753e-06
1.85749e-06
1.85743e-06
1.85729e-06
1.85672e-06
1.8562e-06
1.85602e-06
1.85625e-06
1.8568e-06
1.85734e-06
1.85741e-06
1.85755e-06
1.85741e-06
1.85691e-06
1.85643e-06
1.85625e-06
1.85647e-06
1.85698e-06
1.85745e-06
1.85755e-06
1.85756e-06
1.85755e-06
1.85728e-06
1.85694e-06
1.8568e-06
1.85698e-06
1.85733e-06
1.85757e-06
1.85755e-06
1.85736e-06
1.85746e-06
1.85756e-06
1.85743e-06
1.85734e-06
1.85745e-06
1.85757e-06
1.85742e-06
1.85757e-06
1.85753e-06
1.85741e-06
1.85755e-06
1.85755e-06
1.82421e-06
1.82219e-06
1.82168e-06
1.82048e-06
1.8205e-06
1.82043e-06
1.82043e-06
1.8217e-06
1.822e-06
1.82169e-06
1.81963e-06
1.81693e-06
1.8169e-06
1.81689e-06
1.81693e-06
1.82002e-06
1.82025e-06
1.82049e-06
1.81693e-06
1.81687e-06
1.81693e-06
1.81693e-06
1.81687e-06
1.81693e-06
1.8204e-06
1.82157e-06
1.8242e-06
1.8205e-06
1.8169e-06
1.81693e-06
1.81703e-06
1.81703e-06
1.81693e-06
1.81689e-06
1.82037e-06
1.822e-06
1.8222e-06
1.82043e-06
1.8169e-06
1.81694e-06
1.81703e-06
1.81703e-06
1.81693e-06
1.81689e-06
1.82055e-06
1.82055e-06
1.82043e-06
1.81693e-06
1.81687e-06
1.81694e-06
1.81693e-06
1.81687e-06
1.81693e-06
1.82032e-06
1.82146e-06
1.82171e-06
1.82002e-06
1.81693e-06
1.8169e-06
1.8169e-06
1.81693e-06
1.82022e-06
1.82041e-06
1.82184e-06
1.822e-06
1.82026e-06
1.8204e-06
1.82038e-06
1.82056e-06
1.82032e-06
1.82041e-06
1.82216e-06
1.82158e-06
1.82201e-06
1.82055e-06
1.82146e-06
1.82185e-06
1.80409e-06
1.80391e-06
1.80373e-06
1.80161e-06
1.80151e-06
1.80148e-06
1.80158e-06
1.80371e-06
1.80395e-06
1.80373e-06
1.80089e-06
1.79792e-06
1.79784e-06
1.79784e-06
1.79792e-06
1.80142e-06
1.80205e-06
1.80161e-06
1.79791e-06
1.79763e-06
1.79766e-06
1.79766e-06
1.79763e-06
1.79793e-06
1.80224e-06
1.8042e-06
1.80409e-06
1.80152e-06
1.79784e-06
1.79766e-06
1.79769e-06
1.79769e-06
1.79766e-06
1.79785e-06
1.80228e-06
1.80395e-06
1.80391e-06
1.80148e-06
1.79785e-06
1.79766e-06
1.79769e-06
1.79769e-06
1.79766e-06
1.79784e-06
1.80223e-06
1.80217e-06
1.80159e-06
1.79793e-06
1.79763e-06
1.79766e-06
1.79766e-06
1.79763e-06
1.79792e-06
1.80228e-06
1.80428e-06
1.80371e-06
1.80143e-06
1.79793e-06
1.79785e-06
1.79785e-06
1.79793e-06
1.8019e-06
1.80218e-06
1.80419e-06
1.80396e-06
1.80205e-06
1.80223e-06
1.80228e-06
1.80223e-06
1.80229e-06
1.80218e-06
1.80409e-06
1.8042e-06
1.80395e-06
1.80217e-06
1.80429e-06
1.80419e-06
1.78503e-06
1.78486e-06
1.78473e-06
1.78253e-06
1.78244e-06
1.78235e-06
1.78254e-06
1.78467e-06
1.78494e-06
1.78473e-06
1.78178e-06
1.77882e-06
1.77878e-06
1.77878e-06
1.77882e-06
1.78229e-06
1.78306e-06
1.78253e-06
1.77882e-06
1.77869e-06
1.77869e-06
1.77869e-06
1.77869e-06
1.77882e-06
1.7832e-06
1.78515e-06
1.78503e-06
1.78244e-06
1.77878e-06
1.77869e-06
1.7787e-06
1.7787e-06
1.77869e-06
1.77878e-06
1.78326e-06
1.78488e-06
1.78486e-06
1.78235e-06
1.77878e-06
1.77869e-06
1.7787e-06
1.7787e-06
1.77869e-06
1.77878e-06
1.78323e-06
1.78316e-06
1.78254e-06
1.77882e-06
1.77869e-06
1.77869e-06
1.77869e-06
1.77869e-06
1.77882e-06
1.78324e-06
1.78521e-06
1.78468e-06
1.78229e-06
1.77882e-06
1.77878e-06
1.77878e-06
1.77882e-06
1.78299e-06
1.78318e-06
1.78517e-06
1.78494e-06
1.78306e-06
1.78319e-06
1.78326e-06
1.78323e-06
1.78325e-06
1.78319e-06
1.78518e-06
1.78515e-06
1.78488e-06
1.78317e-06
1.78522e-06
1.78518e-06
1.76594e-06
1.76577e-06
1.76561e-06
1.76341e-06
1.76331e-06
1.7632e-06
1.76341e-06
1.76557e-06
1.76583e-06
1.7656e-06
1.76266e-06
1.75969e-06
1.75968e-06
1.75968e-06
1.75969e-06
1.76314e-06
1.76396e-06
1.76341e-06
1.75969e-06
1.75965e-06
1.75965e-06
1.75965e-06
1.75965e-06
1.75969e-06
1.7641e-06
1.76606e-06
1.76594e-06
1.76331e-06
1.75968e-06
1.75965e-06
1.75965e-06
1.75965e-06
1.75965e-06
1.75967e-06
1.7642e-06
1.76583e-06
1.76577e-06
1.7632e-06
1.75968e-06
1.75965e-06
1.75965e-06
1.75965e-06
1.75965e-06
1.75968e-06
1.76418e-06
1.7641e-06
1.76341e-06
1.75969e-06
1.75965e-06
1.75965e-06
1.75965e-06
1.75965e-06
1.75969e-06
1.76417e-06
1.76615e-06
1.76557e-06
1.76314e-06
1.75969e-06
1.75968e-06
1.75968e-06
1.75969e-06
1.76395e-06
1.76411e-06
1.76607e-06
1.76583e-06
1.76396e-06
1.7641e-06
1.7642e-06
1.76418e-06
1.76417e-06
1.76411e-06
1.76606e-06
1.76606e-06
1.76583e-06
1.7641e-06
1.76615e-06
1.76607e-06
1.74684e-06
1.74667e-06
1.74649e-06
1.7443e-06
1.7442e-06
1.74409e-06
1.7443e-06
1.74646e-06
1.74671e-06
1.74649e-06
1.74355e-06
1.74057e-06
1.74057e-06
1.74057e-06
1.74057e-06
1.74401e-06
1.74485e-06
1.7443e-06
1.74057e-06
1.74056e-06
1.74056e-06
1.74056e-06
1.74056e-06
1.74057e-06
1.74499e-06
1.74695e-06
1.74684e-06
1.7442e-06
1.74057e-06
1.74056e-06
1.74056e-06
1.74056e-06
1.74056e-06
1.74057e-06
1.74511e-06
1.74673e-06
1.74667e-06
1.74409e-06
1.74057e-06
1.74056e-06
1.74056e-06
1.74056e-06
1.74056e-06
1.74057e-06
1.74509e-06
1.74501e-06
1.7443e-06
1.74057e-06
1.74056e-06
1.74056e-06
1.74056e-06
1.74056e-06
1.74057e-06
1.74506e-06
1.74706e-06
1.74646e-06
1.74401e-06
1.74057e-06
1.74057e-06
1.74057e-06
1.74057e-06
1.74487e-06
1.74501e-06
1.74696e-06
1.74672e-06
1.74485e-06
1.74499e-06
1.7451e-06
1.74509e-06
1.74507e-06
1.74501e-06
1.74694e-06
1.74695e-06
1.74674e-06
1.74501e-06
1.74706e-06
1.74697e-06
1.72773e-06
1.72757e-06
1.72739e-06
1.72519e-06
1.72509e-06
1.72499e-06
1.72519e-06
1.72735e-06
1.72761e-06
1.72739e-06
1.72444e-06
1.72147e-06
1.72147e-06
1.72147e-06
1.72147e-06
1.7249e-06
1.72574e-06
1.72519e-06
1.72147e-06
1.72147e-06
1.72147e-06
1.72147e-06
1.72146e-06
1.72147e-06
1.72589e-06
1.72785e-06
1.72774e-06
1.72509e-06
1.72147e-06
1.72147e-06
1.72147e-06
1.72147e-06
1.72146e-06
1.72147e-06
1.726e-06
1.72763e-06
1.72757e-06
1.72499e-06
1.72147e-06
1.72147e-06
1.72147e-06
1.72147e-06
1.72146e-06
1.72147e-06
1.72599e-06
1.7259e-06
1.72519e-06
1.72147e-06
1.72147e-06
1.72147e-06
1.72147e-06
1.72146e-06
1.72147e-06
1.72596e-06
1.72796e-06
1.72735e-06
1.7249e-06
1.72147e-06
1.72147e-06
1.72147e-06
1.72147e-06
1.72577e-06
1.72591e-06
1.72786e-06
1.72761e-06
1.72574e-06
1.72589e-06
1.726e-06
1.72599e-06
1.72596e-06
1.72591e-06
1.72784e-06
1.72785e-06
1.72764e-06
1.72591e-06
1.72795e-06
1.72786e-06
1.70863e-06
1.70846e-06
1.70828e-06
1.70609e-06
1.70599e-06
1.70588e-06
1.70608e-06
1.70825e-06
1.7085e-06
1.70828e-06
1.70534e-06
1.70236e-06
1.70236e-06
1.70236e-06
1.70236e-06
1.7058e-06
1.70664e-06
1.70609e-06
1.70236e-06
1.70236e-06
1.70236e-06
1.70236e-06
1.70236e-06
1.70236e-06
1.70678e-06
1.70874e-06
1.70863e-06
1.70599e-06
1.70236e-06
1.70236e-06
1.70236e-06
1.70236e-06
1.70236e-06
1.70236e-06
1.7069e-06
1.70853e-06
1.70846e-06
1.70588e-06
1.70236e-06
1.70236e-06
1.70236e-06
1.70236e-06
1.70236e-06
1.70236e-06
1.70689e-06
1.7068e-06
1.70608e-06
1.70236e-06
1.70236e-06
1.70236e-06
1.70236e-06
1.70236e-06
1.70236e-06
1.70686e-06
1.70885e-06
1.70825e-06
1.7058e-06
1.70236e-06
1.70236e-06
1.70236e-06
1.70236e-06
1.70666e-06
1.70681e-06
1.70876e-06
1.7085e-06
1.70664e-06
1.70678e-06
1.7069e-06
1.70688e-06
1.70686e-06
1.70681e-06
1.70873e-06
1.70875e-06
1.70853e-06
1.7068e-06
1.70885e-06
1.70876e-06
1.68953e-06
1.68936e-06
1.68918e-06
1.68699e-06
1.68688e-06
1.68678e-06
1.68698e-06
1.68915e-06
1.6894e-06
1.68918e-06
1.68624e-06
1.68326e-06
1.68326e-06
1.68326e-06
1.68326e-06
1.68669e-06
1.68753e-06
1.68699e-06
1.68326e-06
1.68326e-06
1.68326e-06
1.68326e-06
1.68326e-06
1.68326e-06
1.68768e-06
1.68964e-06
1.68953e-06
1.68688e-06
1.68326e-06
1.68326e-06
1.68326e-06
1.68326e-06
1.68326e-06
1.68326e-06
1.6878e-06
1.68943e-06
1.68936e-06
1.68678e-06
1.68326e-06
1.68326e-06
1.68326e-06
1.68326e-06
1.68326e-06
1.68326e-06
1.68778e-06
1.6877e-06
1.68698e-06
1.68326e-06
1.68326e-06
1.68326e-06
1.68326e-06
1.68326e-06
1.68326e-06
1.68775e-06
1.68975e-06
1.68915e-06
1.68669e-06
1.68326e-06
1.68326e-06
1.68326e-06
1.68326e-06
1.68756e-06
1.68771e-06
1.68965e-06
1.6894e-06
1.68754e-06
1.68768e-06
1.68779e-06
1.68778e-06
1.68775e-06
1.68771e-06
1.68963e-06
1.68964e-06
1.68943e-06
1.6877e-06
1.68975e-06
1.68965e-06
1.67043e-06
1.67026e-06
1.67008e-06
1.66788e-06
1.66778e-06
1.66768e-06
1.66788e-06
1.67004e-06
1.6703e-06
1.67007e-06
1.66713e-06
1.66416e-06
1.66416e-06
1.66416e-06
1.66416e-06
1.66759e-06
1.66843e-06
1.66788e-06
1.66416e-06
1.66416e-06
1.66416e-06
1.66416e-06
1.66416e-06
1.66416e-06
1.66858e-06
1.67054e-06
1.67043e-06
1.66778e-06
1.66416e-06
1.66416e-06
1.66416e-06
1.66416e-06
1.66416e-06
1.66416e-06
1.66869e-06
1.67032e-06
1.67026e-06
1.66768e-06
1.66416e-06
1.66416e-06
1.66416e-06
1.66416e-06
1.66416e-06
1.66416e-06
1.66868e-06
1.6686e-06
1.66788e-06
1.66416e-06
1.66416e-06
1.66416e-06
1.66416e-06
1.66416e-06
1.66416e-06
1.66865e-06
1.67065e-06
1.67004e-06
1.66759e-06
1.66416e-06
1.66416e-06
1.66416e-06
1.66416e-06
1.66846e-06
1.6686e-06
1.67055e-06
1.6703e-06
1.66843e-06
1.66858e-06
1.66869e-06
1.66868e-06
1.66865e-06
1.66861e-06
1.67053e-06
1.67054e-06
1.67033e-06
1.6686e-06
1.67065e-06
1.67055e-06
1.65132e-06
1.65115e-06
1.65097e-06
1.64878e-06
1.64868e-06
1.64857e-06
1.64878e-06
1.65094e-06
1.65119e-06
1.65097e-06
1.64803e-06
1.64505e-06
1.64505e-06
1.64505e-06
1.64505e-06
1.64849e-06
1.64933e-06
1.64878e-06
1.64505e-06
1.64505e-06
1.64505e-06
1.64505e-06
1.64505e-06
1.64505e-06
1.64947e-06
1.65143e-06
1.65132e-06
1.64868e-06
1.64505e-06
1.64505e-06
1.64505e-06
1.64505e-06
1.64505e-06
1.64505e-06
1.64959e-06
1.65122e-06
1.65115e-06
1.64857e-06
1.64505e-06
1.64505e-06
1.64505e-06
1.64505e-06
1.64505e-06
1.64505e-06
1.64958e-06
1.64949e-06
1.64877e-06
1.64505e-06
1.64505e-06
1.64505e-06
1.64505e-06
1.64505e-06
1.64505e-06
1.64955e-06
1.65154e-06
1.65094e-06
1.64849e-06
1.64505e-06
1.64505e-06
1.64505e-06
1.64505e-06
1.64936e-06
1.6495e-06
1.65145e-06
1.6512e-06
1.64933e-06
1.64947e-06
1.64959e-06
1.64958e-06
1.64955e-06
1.6495e-06
1.65142e-06
1.65144e-06
1.65122e-06
1.64949e-06
1.65154e-06
1.65145e-06
1.63222e-06
1.63205e-06
1.63187e-06
1.62968e-06
1.62957e-06
1.62947e-06
1.62967e-06
1.63184e-06
1.63209e-06
1.63187e-06
1.62893e-06
1.62595e-06
1.62595e-06
1.62595e-06
1.62595e-06
1.62938e-06
1.63023e-06
1.62968e-06
1.62595e-06
1.62595e-06
1.62595e-06
1.62595e-06
1.62595e-06
1.62595e-06
1.63037e-06
1.63233e-06
1.63222e-06
1.62957e-06
1.62595e-06
1.62595e-06
1.62595e-06
1.62595e-06
1.62595e-06
1.62595e-06
1.63049e-06
1.63212e-06
1.63205e-06
1.62947e-06
1.62595e-06
1.62595e-06
1.62595e-06
1.62595e-06
1.62595e-06
1.62595e-06
1.63047e-06
1.63039e-06
1.62967e-06
1.62595e-06
1.62595e-06
1.62595e-06
1.62595e-06
1.62595e-06
1.62595e-06
1.63045e-06
1.63244e-06
1.63184e-06
1.62938e-06
1.62595e-06
1.62595e-06
1.62595e-06
1.62595e-06
1.63025e-06
1.6304e-06
1.63234e-06
1.63209e-06
1.63023e-06
1.63037e-06
1.63049e-06
1.63047e-06
1.63045e-06
1.6304e-06
1.63232e-06
1.63233e-06
1.63212e-06
1.63039e-06
1.63244e-06
1.63234e-06
1.61312e-06
1.61295e-06
1.61277e-06
1.61058e-06
1.61047e-06
1.61037e-06
1.61057e-06
1.61274e-06
1.61299e-06
1.61277e-06
1.60983e-06
1.60685e-06
1.60685e-06
1.60685e-06
1.60685e-06
1.61028e-06
1.61112e-06
1.61057e-06
1.60685e-06
1.60685e-06
1.60685e-06
1.60685e-06
1.60685e-06
1.60685e-06
1.61127e-06
1.61323e-06
1.61312e-06
1.61047e-06
1.60685e-06
1.60685e-06
1.60685e-06
1.60685e-06
1.60685e-06
1.60685e-06
1.61139e-06
1.61302e-06
1.61295e-06
1.61037e-06
1.60685e-06
1.60685e-06
1.60685e-06
1.60685e-06
1.60685e-06
1.60685e-06
1.61137e-06
1.61129e-06
1.61057e-06
1.60685e-06
1.60685e-06
1.60685e-06
1.60685e-06
1.60685e-06
1.60685e-06
1.61134e-06
1.61334e-06
1.61274e-06
1.61028e-06
1.60685e-06
1.60685e-06
1.60685e-06
1.60685e-06
1.61115e-06
1.6113e-06
1.61324e-06
1.61299e-06
1.61112e-06
1.61127e-06
1.61138e-06
1.61137e-06
1.61134e-06
1.6113e-06
1.61322e-06
1.61323e-06
1.61302e-06
1.61129e-06
1.61334e-06
1.61324e-06
1.59402e-06
1.59385e-06
1.59366e-06
1.59147e-06
1.59137e-06
1.59127e-06
1.59147e-06
1.59363e-06
1.59389e-06
1.59367e-06
1.59072e-06
1.58775e-06
1.58775e-06
1.58775e-06
1.58775e-06
1.59118e-06
1.59202e-06
1.59147e-06
1.58775e-06
1.58775e-06
1.58775e-06
1.58775e-06
1.58775e-06
1.58775e-06
1.59217e-06
1.59413e-06
1.59402e-06
1.59137e-06
1.58775e-06
1.58775e-06
1.58775e-06
1.58775e-06
1.58775e-06
1.58775e-06
1.59228e-06
1.59392e-06
1.59385e-06
1.59127e-06
1.58775e-06
1.58775e-06
1.58775e-06
1.58775e-06
1.58775e-06
1.58775e-06
1.59227e-06
1.59219e-06
1.59147e-06
1.58775e-06
1.58775e-06
1.58775e-06
1.58775e-06
1.58775e-06
1.58775e-06
1.59224e-06
1.59424e-06
1.59363e-06
1.59118e-06
1.58775e-06
1.58775e-06
1.58775e-06
1.58775e-06
1.59205e-06
1.59219e-06
1.59414e-06
1.59389e-06
1.59202e-06
1.59217e-06
1.59228e-06
1.59227e-06
1.59224e-06
1.5922e-06
1.59412e-06
1.59413e-06
1.59392e-06
1.59219e-06
1.59424e-06
1.59414e-06
1.57492e-06
1.57475e-06
1.57456e-06
1.57237e-06
1.57227e-06
1.57217e-06
1.57237e-06
1.57453e-06
1.57479e-06
1.57456e-06
1.57162e-06
1.56865e-06
1.56865e-06
1.56865e-06
1.56865e-06
1.57208e-06
1.57292e-06
1.57237e-06
1.56865e-06
1.56865e-06
1.56865e-06
1.56865e-06
1.56865e-06
1.56865e-06
1.57307e-06
1.57503e-06
1.57492e-06
1.57227e-06
1.56865e-06
1.56865e-06
1.56865e-06
1.56865e-06
1.56865e-06
1.56865e-06
1.57318e-06
1.57481e-06
1.57475e-06
1.57217e-06
1.56865e-06
1.56865e-06
1.56865e-06
1.56865e-06
1.56865e-06
1.56865e-06
1.57317e-06
1.57309e-06
1.57237e-06
1.56865e-06
1.56865e-06
1.56865e-06
1.56865e-06
1.56865e-06
1.56865e-06
1.57314e-06
1.57514e-06
1.57453e-06
1.57208e-06
1.56865e-06
1.56865e-06
1.56865e-06
1.56865e-06
1.57295e-06
1.57309e-06
1.57504e-06
1.57479e-06
1.57292e-06
1.57307e-06
1.57318e-06
1.57317e-06
1.57314e-06
1.5731e-06
1.57502e-06
1.57503e-06
1.57482e-06
1.57309e-06
1.57514e-06
1.57504e-06
1.55581e-06
1.55564e-06
1.55546e-06
1.55327e-06
1.55317e-06
1.55307e-06
1.55327e-06
1.55543e-06
1.55568e-06
1.55546e-06
1.55252e-06
1.54955e-06
1.54955e-06
1.54955e-06
1.54955e-06
1.55298e-06
1.55382e-06
1.55327e-06
1.54955e-06
1.54955e-06
1.54955e-06
1.54955e-06
1.54955e-06
1.54955e-06
1.55396e-06
1.55592e-06
1.55582e-06
1.55317e-06
1.54955e-06
1.54955e-06
1.54955e-06
1.54955e-06
1.54955e-06
1.54955e-06
1.55408e-06
1.55571e-06
1.55564e-06
1.55307e-06
1.54955e-06
1.54955e-06
1.54955e-06
1.54955e-06
1.54955e-06
1.54955e-06
1.55407e-06
1.55398e-06
1.55327e-06
1.54955e-06
1.54955e-06
1.54955e-06
1.54955e-06
1.54955e-06
1.54955e-06
1.55404e-06
1.55604e-06
1.55543e-06
1.55298e-06
1.54955e-06
1.54955e-06
1.54955e-06
1.54955e-06
1.55385e-06
1.55399e-06
1.55594e-06
1.55569e-06
1.55382e-06
1.55396e-06
1.55408e-06
1.55407e-06
1.55404e-06
1.55399e-06
1.55592e-06
1.55593e-06
1.55571e-06
1.55398e-06
1.55603e-06
1.55594e-06
1.53671e-06
1.53654e-06
1.53636e-06
1.53417e-06
1.53407e-06
1.53396e-06
1.53417e-06
1.53633e-06
1.53658e-06
1.53636e-06
1.53342e-06
1.53044e-06
1.53044e-06
1.53044e-06
1.53044e-06
1.53388e-06
1.53472e-06
1.53417e-06
1.53044e-06
1.53044e-06
1.53044e-06
1.53044e-06
1.53044e-06
1.53044e-06
1.53486e-06
1.53682e-06
1.53671e-06
1.53407e-06
1.53044e-06
1.53044e-06
1.53044e-06
1.53044e-06
1.53044e-06
1.53044e-06
1.53498e-06
1.53661e-06
1.53654e-06
1.53396e-06
1.53044e-06
1.53044e-06
1.53044e-06
1.53044e-06
1.53044e-06
1.53044e-06
1.53497e-06
1.53488e-06
1.53416e-06
1.53044e-06
1.53044e-06
1.53044e-06
1.53044e-06
1.53044e-06
1.53044e-06
1.53494e-06
1.53693e-06
1.53633e-06
1.53388e-06
1.53044e-06
1.53044e-06
1.53044e-06
1.53044e-06
1.53475e-06
1.53489e-06
1.53684e-06
1.53658e-06
1.53472e-06
1.53486e-06
1.53498e-06
1.53497e-06
1.53494e-06
1.53489e-06
1.53681e-06
1.53683e-06
1.53661e-06
1.53488e-06
1.53693e-06
1.53684e-06
1.51761e-06
1.51744e-06
1.51726e-06
1.51507e-06
1.51497e-06
1.51486e-06
1.51506e-06
1.51723e-06
1.51748e-06
1.51726e-06
1.51432e-06
1.51134e-06
1.51134e-06
1.51134e-06
1.51134e-06
1.51478e-06
1.51562e-06
1.51507e-06
1.51134e-06
1.51134e-06
1.51134e-06
1.51134e-06
1.51134e-06
1.51134e-06
1.51576e-06
1.51772e-06
1.51761e-06
1.51496e-06
1.51134e-06
1.51134e-06
1.51134e-06
1.51134e-06
1.51134e-06
1.51134e-06
1.51588e-06
1.51751e-06
1.51744e-06
1.51486e-06
1.51134e-06
1.51134e-06
1.51134e-06
1.51134e-06
1.51134e-06
1.51134e-06
1.51587e-06
1.51578e-06
1.51506e-06
1.51134e-06
1.51134e-06
1.51134e-06
1.51134e-06
1.51134e-06
1.51134e-06
1.51584e-06
1.51783e-06
1.51723e-06
1.51478e-06
1.51134e-06
1.51134e-06
1.51134e-06
1.51134e-06
1.51565e-06
1.51579e-06
1.51773e-06
1.51748e-06
1.51562e-06
1.51576e-06
1.51588e-06
1.51586e-06
1.51584e-06
1.51579e-06
1.51771e-06
1.51772e-06
1.51751e-06
1.51578e-06
1.51783e-06
1.51774e-06
1.49851e-06
1.49834e-06
1.49816e-06
1.49597e-06
1.49586e-06
1.49576e-06
1.49596e-06
1.49813e-06
1.49838e-06
1.49816e-06
1.49522e-06
1.49224e-06
1.49224e-06
1.49224e-06
1.49224e-06
1.49567e-06
1.49652e-06
1.49597e-06
1.49224e-06
1.49224e-06
1.49224e-06
1.49224e-06
1.49224e-06
1.49224e-06
1.49666e-06
1.49862e-06
1.49851e-06
1.49586e-06
1.49224e-06
1.49224e-06
1.49224e-06
1.49224e-06
1.49224e-06
1.49224e-06
1.49678e-06
1.49841e-06
1.49834e-06
1.49576e-06
1.49224e-06
1.49224e-06
1.49224e-06
1.49224e-06
1.49224e-06
1.49224e-06
1.49676e-06
1.49668e-06
1.49596e-06
1.49224e-06
1.49224e-06
1.49224e-06
1.49224e-06
1.49224e-06
1.49224e-06
1.49674e-06
1.49873e-06
1.49813e-06
1.49567e-06
1.49224e-06
1.49224e-06
1.49224e-06
1.49224e-06
1.49654e-06
1.49669e-06
1.49863e-06
1.49838e-06
1.49652e-06
1.49666e-06
1.49678e-06
1.49676e-06
1.49674e-06
1.49669e-06
1.49861e-06
1.49862e-06
1.49841e-06
1.49668e-06
1.49873e-06
1.49863e-06
1.47941e-06
1.47924e-06
1.47906e-06
1.47687e-06
1.47676e-06
1.47666e-06
1.47686e-06
1.47903e-06
1.47928e-06
1.47906e-06
1.47612e-06
1.47314e-06
1.47314e-06
1.47314e-06
1.47314e-06
1.47657e-06
1.47741e-06
1.47687e-06
1.47314e-06
1.47314e-06
1.47314e-06
1.47314e-06
1.47314e-06
1.47314e-06
1.47756e-06
1.47952e-06
1.47941e-06
1.47676e-06
1.47314e-06
1.47314e-06
1.47314e-06
1.47314e-06
1.47314e-06
1.47314e-06
1.47768e-06
1.47931e-06
1.47924e-06
1.47666e-06
1.47314e-06
1.47314e-06
1.47314e-06
1.47314e-06
1.47314e-06
1.47314e-06
1.47766e-06
1.47758e-06
1.47686e-06
1.47314e-06
1.47314e-06
1.47314e-06
1.47314e-06
1.47314e-06
1.47314e-06
1.47764e-06
1.47963e-06
1.47903e-06
1.47657e-06
1.47314e-06
1.47314e-06
1.47314e-06
1.47314e-06
1.47744e-06
1.47759e-06
1.47953e-06
1.47928e-06
1.47742e-06
1.47756e-06
1.47768e-06
1.47766e-06
1.47764e-06
1.47759e-06
1.47951e-06
1.47952e-06
1.47931e-06
1.47758e-06
1.47963e-06
1.47953e-06
1.46031e-06
1.46014e-06
1.45995e-06
1.45776e-06
1.45766e-06
1.45756e-06
1.45776e-06
1.45992e-06
1.46018e-06
1.45996e-06
1.45701e-06
1.45404e-06
1.45404e-06
1.45404e-06
1.45404e-06
1.45747e-06
1.45831e-06
1.45776e-06
1.45404e-06
1.45404e-06
1.45404e-06
1.45404e-06
1.45404e-06
1.45404e-06
1.45846e-06
1.46042e-06
1.46031e-06
1.45766e-06
1.45404e-06
1.45404e-06
1.45404e-06
1.45404e-06
1.45404e-06
1.45404e-06
1.45857e-06
1.46021e-06
1.46014e-06
1.45756e-06
1.45404e-06
1.45404e-06
1.45404e-06
1.45404e-06
1.45404e-06
1.45404e-06
1.45856e-06
1.45848e-06
1.45776e-06
1.45404e-06
1.45404e-06
1.45404e-06
1.45404e-06
1.45404e-06
1.45404e-06
1.45853e-06
1.46053e-06
1.45993e-06
1.45747e-06
1.45404e-06
1.45404e-06
1.45404e-06
1.45404e-06
1.45834e-06
1.45848e-06
1.46043e-06
1.46018e-06
1.45831e-06
1.45846e-06
1.45857e-06
1.45856e-06
1.45853e-06
1.45849e-06
1.46041e-06
1.46042e-06
1.46021e-06
1.45848e-06
1.46053e-06
1.46043e-06
1.4412e-06
1.44103e-06
1.44085e-06
1.43866e-06
1.43856e-06
1.43846e-06
1.43866e-06
1.44082e-06
1.44108e-06
1.44085e-06
1.43791e-06
1.43494e-06
1.43493e-06
1.43493e-06
1.43493e-06
1.43837e-06
1.43921e-06
1.43866e-06
1.43494e-06
1.43493e-06
1.43493e-06
1.43493e-06
1.43493e-06
1.43493e-06
1.43935e-06
1.44131e-06
1.44121e-06
1.43856e-06
1.43493e-06
1.43493e-06
1.43493e-06
1.43493e-06
1.43493e-06
1.43493e-06
1.43947e-06
1.4411e-06
1.44103e-06
1.43846e-06
1.43493e-06
1.43493e-06
1.43493e-06
1.43493e-06
1.43493e-06
1.43493e-06
1.43946e-06
1.43937e-06
1.43866e-06
1.43493e-06
1.43493e-06
1.43493e-06
1.43493e-06
1.43493e-06
1.43493e-06
1.43943e-06
1.44143e-06
1.44082e-06
1.43837e-06
1.43493e-06
1.43493e-06
1.43493e-06
1.43493e-06
1.43924e-06
1.43938e-06
1.44133e-06
1.44108e-06
1.43921e-06
1.43935e-06
1.43947e-06
1.43946e-06
1.43943e-06
1.43938e-06
1.44131e-06
1.44132e-06
1.4411e-06
1.43937e-06
1.44142e-06
1.44133e-06
1.4221e-06
1.42193e-06
1.42175e-06
1.41956e-06
1.41945e-06
1.41935e-06
1.41955e-06
1.42172e-06
1.42197e-06
1.42175e-06
1.41881e-06
1.41583e-06
1.41583e-06
1.41583e-06
1.41583e-06
1.41926e-06
1.42011e-06
1.41956e-06
1.41583e-06
1.41583e-06
1.41583e-06
1.41583e-06
1.41583e-06
1.41583e-06
1.42025e-06
1.42221e-06
1.4221e-06
1.41945e-06
1.41583e-06
1.41583e-06
1.41583e-06
1.41583e-06
1.41583e-06
1.41583e-06
1.42037e-06
1.422e-06
1.42193e-06
1.41935e-06
1.41583e-06
1.41583e-06
1.41583e-06
1.41583e-06
1.41583e-06
1.41583e-06
1.42035e-06
1.42027e-06
1.41955e-06
1.41583e-06
1.41583e-06
1.41583e-06
1.41583e-06
1.41583e-06
1.41583e-06
1.42033e-06
1.42232e-06
1.42172e-06
1.41926e-06
1.41583e-06
1.41583e-06
1.41583e-06
1.41583e-06
1.42013e-06
1.42028e-06
1.42222e-06
1.42197e-06
1.42011e-06
1.42025e-06
1.42037e-06
1.42035e-06
1.42033e-06
1.42028e-06
1.4222e-06
1.42221e-06
1.422e-06
1.42027e-06
1.42232e-06
1.42223e-06
1.403e-06
1.40283e-06
1.40264e-06
1.40045e-06
1.40035e-06
1.40025e-06
1.40045e-06
1.40262e-06
1.40287e-06
1.40265e-06
1.3997e-06
1.39673e-06
1.39673e-06
1.39673e-06
1.39673e-06
1.40016e-06
1.401e-06
1.40045e-06
1.39673e-06
1.39673e-06
1.39673e-06
1.39673e-06
1.39673e-06
1.39673e-06
1.40115e-06
1.40311e-06
1.403e-06
1.40035e-06
1.39673e-06
1.39673e-06
1.39673e-06
1.39673e-06
1.39673e-06
1.39673e-06
1.40126e-06
1.4029e-06
1.40283e-06
1.40025e-06
1.39673e-06
1.39673e-06
1.39673e-06
1.39673e-06
1.39673e-06
1.39673e-06
1.40125e-06
1.40117e-06
1.40045e-06
1.39673e-06
1.39673e-06
1.39673e-06
1.39673e-06
1.39673e-06
1.39673e-06
1.40122e-06
1.40322e-06
1.40262e-06
1.40016e-06
1.39673e-06
1.39673e-06
1.39673e-06
1.39673e-06
1.40103e-06
1.40117e-06
1.40312e-06
1.40287e-06
1.401e-06
1.40115e-06
1.40126e-06
1.40125e-06
1.40122e-06
1.40118e-06
1.4031e-06
1.40311e-06
1.4029e-06
1.40117e-06
1.40322e-06
1.40312e-06
1.38389e-06
1.38372e-06
1.38354e-06
1.38135e-06
1.38125e-06
1.38115e-06
1.38135e-06
1.38351e-06
1.38377e-06
1.38354e-06
1.3806e-06
1.37762e-06
1.37762e-06
1.37762e-06
1.37762e-06
1.38106e-06
1.3819e-06
1.38135e-06
1.37762e-06
1.37762e-06
1.37762e-06
1.37762e-06
1.37762e-06
1.37762e-06
1.38204e-06
1.384e-06
1.3839e-06
1.38125e-06
1.37762e-06
1.37762e-06
1.37762e-06
1.37762e-06
1.37762e-06
1.37762e-06
1.38216e-06
1.38379e-06
1.38372e-06
1.38114e-06
1.37762e-06
1.37762e-06
1.37762e-06
1.37762e-06
1.37762e-06
1.37762e-06
1.38215e-06
1.38206e-06
1.38135e-06
1.37762e-06
1.37762e-06
1.37762e-06
1.37762e-06
1.37762e-06
1.37762e-06
1.38212e-06
1.38412e-06
1.38351e-06
1.38106e-06
1.37762e-06
1.37762e-06
1.37762e-06
1.37762e-06
1.38193e-06
1.38207e-06
1.38402e-06
1.38377e-06
1.3819e-06
1.38204e-06
1.38216e-06
1.38215e-06
1.38212e-06
1.38207e-06
1.38399e-06
1.38401e-06
1.38379e-06
1.38206e-06
1.38411e-06
1.38402e-06
1.36479e-06
1.36462e-06
1.36444e-06
1.36225e-06
1.36214e-06
1.36204e-06
1.36224e-06
1.36441e-06
1.36466e-06
1.36444e-06
1.3615e-06
1.35852e-06
1.35852e-06
1.35852e-06
1.35852e-06
1.36195e-06
1.36279e-06
1.36225e-06
1.35852e-06
1.35852e-06
1.35852e-06
1.35852e-06
1.35852e-06
1.35852e-06
1.36294e-06
1.3649e-06
1.36479e-06
1.36214e-06
1.35852e-06
1.35852e-06
1.35852e-06
1.35852e-06
1.35852e-06
1.35852e-06
1.36306e-06
1.36469e-06
1.36462e-06
1.36204e-06
1.35852e-06
1.35852e-06
1.35852e-06
1.35852e-06
1.35852e-06
1.35852e-06
1.36304e-06
1.36296e-06
1.36224e-06
1.35852e-06
1.35852e-06
1.35852e-06
1.35852e-06
1.35852e-06
1.35852e-06
1.36302e-06
1.36501e-06
1.36441e-06
1.36195e-06
1.35852e-06
1.35852e-06
1.35852e-06
1.35852e-06
1.36282e-06
1.36297e-06
1.36491e-06
1.36466e-06
1.3628e-06
1.36294e-06
1.36306e-06
1.36304e-06
1.36302e-06
1.36297e-06
1.36489e-06
1.3649e-06
1.36469e-06
1.36296e-06
1.36501e-06
1.36491e-06
1.34569e-06
1.34552e-06
1.34533e-06
1.34314e-06
1.34304e-06
1.34294e-06
1.34314e-06
1.3453e-06
1.34556e-06
1.34533e-06
1.34239e-06
1.33942e-06
1.33942e-06
1.33942e-06
1.33942e-06
1.34285e-06
1.34369e-06
1.34314e-06
1.33942e-06
1.33942e-06
1.33942e-06
1.33942e-06
1.33942e-06
1.33942e-06
1.34384e-06
1.3458e-06
1.34569e-06
1.34304e-06
1.33942e-06
1.33942e-06
1.33942e-06
1.33942e-06
1.33942e-06
1.33942e-06
1.34395e-06
1.34558e-06
1.34552e-06
1.34294e-06
1.33942e-06
1.33942e-06
1.33942e-06
1.33942e-06
1.33942e-06
1.33942e-06
1.34394e-06
1.34386e-06
1.34314e-06
1.33942e-06
1.33942e-06
1.33942e-06
1.33942e-06
1.33942e-06
1.33942e-06
1.34391e-06
1.34591e-06
1.3453e-06
1.34285e-06
1.33942e-06
1.33942e-06
1.33942e-06
1.33942e-06
1.34372e-06
1.34386e-06
1.34581e-06
1.34556e-06
1.34369e-06
1.34384e-06
1.34395e-06
1.34394e-06
1.34391e-06
1.34386e-06
1.34579e-06
1.3458e-06
1.34559e-06
1.34386e-06
1.34591e-06
1.34581e-06
1.32658e-06
1.32641e-06
1.32623e-06
1.32404e-06
1.32393e-06
1.32383e-06
1.32403e-06
1.3262e-06
1.32645e-06
1.32623e-06
1.32329e-06
1.32031e-06
1.32031e-06
1.32031e-06
1.32031e-06
1.32374e-06
1.32459e-06
1.32404e-06
1.32031e-06
1.32031e-06
1.32031e-06
1.32031e-06
1.32031e-06
1.32031e-06
1.32473e-06
1.32669e-06
1.32658e-06
1.32393e-06
1.32031e-06
1.32031e-06
1.32031e-06
1.32031e-06
1.32031e-06
1.32031e-06
1.32485e-06
1.32648e-06
1.32641e-06
1.32383e-06
1.32031e-06
1.32031e-06
1.32031e-06
1.32031e-06
1.32031e-06
1.32031e-06
1.32484e-06
1.32475e-06
1.32403e-06
1.32031e-06
1.32031e-06
1.32031e-06
1.32031e-06
1.32031e-06
1.32031e-06
1.32481e-06
1.3268e-06
1.3262e-06
1.32374e-06
1.32031e-06
1.32031e-06
1.32031e-06
1.32031e-06
1.32461e-06
1.32476e-06
1.3267e-06
1.32645e-06
1.32459e-06
1.32473e-06
1.32485e-06
1.32483e-06
1.32481e-06
1.32476e-06
1.32668e-06
1.32669e-06
1.32648e-06
1.32475e-06
1.3268e-06
1.32671e-06
1.30748e-06
1.30731e-06
1.30712e-06
1.30493e-06
1.30483e-06
1.30473e-06
1.30493e-06
1.3071e-06
1.30735e-06
1.30713e-06
1.30418e-06
1.30121e-06
1.30121e-06
1.30121e-06
1.30121e-06
1.30464e-06
1.30548e-06
1.30493e-06
1.30121e-06
1.30121e-06
1.30121e-06
1.30121e-06
1.30121e-06
1.30121e-06
1.30563e-06
1.30759e-06
1.30748e-06
1.30483e-06
1.30121e-06
1.30121e-06
1.30121e-06
1.30121e-06
1.30121e-06
1.30121e-06
1.30574e-06
1.30737e-06
1.30731e-06
1.30473e-06
1.30121e-06
1.30121e-06
1.30121e-06
1.30121e-06
1.30121e-06
1.30121e-06
1.30573e-06
1.30565e-06
1.30493e-06
1.30121e-06
1.30121e-06
1.30121e-06
1.30121e-06
1.30121e-06
1.30121e-06
1.3057e-06
1.3077e-06
1.30709e-06
1.30464e-06
1.30121e-06
1.30121e-06
1.30121e-06
1.30121e-06
1.30551e-06
1.30565e-06
1.3076e-06
1.30735e-06
1.30548e-06
1.30563e-06
1.30574e-06
1.30573e-06
1.3057e-06
1.30566e-06
1.30758e-06
1.30759e-06
1.30738e-06
1.30565e-06
1.3077e-06
1.3076e-06
1.28837e-06
1.2882e-06
1.28802e-06
1.28583e-06
1.28572e-06
1.28562e-06
1.28582e-06
1.28799e-06
1.28824e-06
1.28802e-06
1.28508e-06
1.2821e-06
1.2821e-06
1.2821e-06
1.2821e-06
1.28553e-06
1.28638e-06
1.28583e-06
1.2821e-06
1.2821e-06
1.2821e-06
1.2821e-06
1.2821e-06
1.2821e-06
1.28652e-06
1.28848e-06
1.28837e-06
1.28572e-06
1.2821e-06
1.2821e-06
1.2821e-06
1.2821e-06
1.2821e-06
1.2821e-06
1.28664e-06
1.28827e-06
1.2882e-06
1.28562e-06
1.2821e-06
1.2821e-06
1.2821e-06
1.2821e-06
1.2821e-06
1.2821e-06
1.28662e-06
1.28654e-06
1.28582e-06
1.2821e-06
1.2821e-06
1.2821e-06
1.2821e-06
1.2821e-06
1.2821e-06
1.2866e-06
1.28859e-06
1.28799e-06
1.28553e-06
1.2821e-06
1.2821e-06
1.2821e-06
1.2821e-06
1.2864e-06
1.28655e-06
1.28849e-06
1.28824e-06
1.28638e-06
1.28652e-06
1.28664e-06
1.28662e-06
1.2866e-06
1.28655e-06
1.28847e-06
1.28848e-06
1.28827e-06
1.28654e-06
1.28859e-06
1.28849e-06
1.26926e-06
1.2691e-06
1.26891e-06
1.26672e-06
1.26662e-06
1.26652e-06
1.26672e-06
1.26888e-06
1.26914e-06
1.26891e-06
1.26597e-06
1.263e-06
1.263e-06
1.263e-06
1.263e-06
1.26643e-06
1.26727e-06
1.26672e-06
1.263e-06
1.26299e-06
1.26299e-06
1.26299e-06
1.26299e-06
1.263e-06
1.26741e-06
1.26938e-06
1.26927e-06
1.26662e-06
1.26299e-06
1.26299e-06
1.26299e-06
1.26299e-06
1.26299e-06
1.26299e-06
1.26753e-06
1.26916e-06
1.2691e-06
1.26652e-06
1.26299e-06
1.26299e-06
1.26299e-06
1.26299e-06
1.26299e-06
1.26299e-06
1.26752e-06
1.26743e-06
1.26672e-06
1.26299e-06
1.26299e-06
1.26299e-06
1.26299e-06
1.26299e-06
1.26299e-06
1.26749e-06
1.26949e-06
1.26888e-06
1.26643e-06
1.26299e-06
1.26299e-06
1.26299e-06
1.26299e-06
1.2673e-06
1.26744e-06
1.26939e-06
1.26914e-06
1.26727e-06
1.26741e-06
1.26753e-06
1.26752e-06
1.26749e-06
1.26744e-06
1.26937e-06
1.26938e-06
1.26916e-06
1.26744e-06
1.26948e-06
1.26939e-06
1.25016e-06
1.24999e-06
1.24981e-06
1.24761e-06
1.24751e-06
1.24741e-06
1.24761e-06
1.24978e-06
1.25003e-06
1.24981e-06
1.24686e-06
1.24389e-06
1.24389e-06
1.24389e-06
1.24389e-06
1.24732e-06
1.24816e-06
1.24761e-06
1.24389e-06
1.24389e-06
1.24389e-06
1.24389e-06
1.24389e-06
1.24389e-06
1.24831e-06
1.25027e-06
1.25016e-06
1.24751e-06
1.24389e-06
1.24389e-06
1.24389e-06
1.24389e-06
1.24389e-06
1.24389e-06
1.24843e-06
1.25006e-06
1.24999e-06
1.24741e-06
1.24389e-06
1.24389e-06
1.24389e-06
1.24389e-06
1.24389e-06
1.24389e-06
1.24841e-06
1.24833e-06
1.24761e-06
1.24389e-06
1.24389e-06
1.24389e-06
1.24389e-06
1.24389e-06
1.24389e-06
1.24838e-06
1.25038e-06
1.24978e-06
1.24732e-06
1.24389e-06