/*--------------------------------*- C++ -*----------------------------------*\
| =========                 |                                                 |
| \\      /  F ield         | OpenFOAM: The Open Source CFD Toolbox           |
|  \\    /   O peration     | Version:  v2012                                 |
|   \\  /    A nd           | Website:  www.openfoam.com                      |
|    \\/     M anipulation  |                                                 |
\*---------------------------------------------------------------------------*/
FoamFile
{
    version     2.0;
    format      ascii;
    class       volScalarField;
    location    "300";
    object      epsilon;
}
// * * * * * * * * * * * * * * * * * * * * * * * * * * * * * * * * * * * * * //

dimensions      [0 2 -3 0 0 0 0];


internalField   nonuniform List<scalar> 
85864
(
4.9557e-07
4.97417e-07
4.97416e-07
4.9962e-07
4.45583e-07
4.53903e-07
4.53895e-07
4.63973e-07
4.03775e-07
4.18696e-07
4.18692e-07
4.39643e-07
3.68392e-07
3.887e-07
3.88697e-07
4.17756e-07
3.3804e-07
3.62191e-07
3.62184e-07
3.96006e-07
3.11659e-07
3.38296e-07
3.38293e-07
3.74362e-07
2.88472e-07
3.16601e-07
3.16597e-07
3.5338e-07
2.67909e-07
2.96932e-07
2.96924e-07
3.33744e-07
2.49552e-07
2.79232e-07
2.79226e-07
3.15904e-07
2.33094e-07
2.635e-07
2.63498e-07
3.00656e-07
2.18308e-07
2.49741e-07
2.49743e-07
2.87632e-07
2.05018e-07
2.37951e-07
2.37954e-07
2.77814e-07
1.93084e-07
2.28133e-07
2.28137e-07
2.71081e-07
1.82396e-07
2.20292e-07
2.20297e-07
2.67459e-07
1.72862e-07
2.1443e-07
2.14435e-07
2.66927e-07
1.64409e-07
2.10554e-07
2.10564e-07
2.69723e-07
1.56973e-07
2.08679e-07
2.08689e-07
2.75859e-07
1.50502e-07
2.08807e-07
2.08818e-07
2.85623e-07
1.44951e-07
2.11e-07
2.11017e-07
2.98539e-07
1.40284e-07
2.15267e-07
2.15287e-07
3.14647e-07
1.3647e-07
2.21624e-07
2.21652e-07
3.34419e-07
1.33487e-07
2.30092e-07
2.30125e-07
3.57495e-07
1.31313e-07
2.40655e-07
2.40694e-07
3.83503e-07
1.29931e-07
2.53296e-07
2.5334e-07
4.1248e-07
1.29329e-07
2.67966e-07
2.68009e-07
4.44509e-07
1.29511e-07
2.84599e-07
2.84648e-07
4.77529e-07
1.3045e-07
3.03106e-07
3.03161e-07
5.12828e-07
1.3215e-07
3.23386e-07
3.23452e-07
5.49055e-07
1.34611e-07
3.4532e-07
3.45391e-07
5.86774e-07
1.37834e-07
3.68769e-07
3.68849e-07
6.23546e-07
1.41819e-07
3.93591e-07
3.93678e-07
6.61143e-07
1.46572e-07
4.19626e-07
4.19721e-07
6.98224e-07
1.52097e-07
4.46706e-07
4.4681e-07
7.34875e-07
1.58398e-07
4.74676e-07
4.74789e-07
7.70639e-07
1.65481e-07
5.03355e-07
5.03476e-07
8.05524e-07
1.73347e-07
5.32575e-07
5.32696e-07
8.39224e-07
1.81997e-07
5.62148e-07
5.62274e-07
8.71826e-07
1.91428e-07
5.91911e-07
5.92039e-07
9.03235e-07
2.01632e-07
6.21697e-07
6.21828e-07
9.34913e-07
2.12595e-07
6.51343e-07
6.51483e-07
9.64173e-07
2.24292e-07
6.80714e-07
6.80851e-07
9.91972e-07
2.36701e-07
7.09666e-07
7.09809e-07
1.0186e-06
2.49787e-07
7.38083e-07
7.38225e-07
1.04407e-06
2.6351e-07
7.65856e-07
7.65989e-07
1.06843e-06
2.77821e-07
7.92883e-07
7.93011e-07
1.0917e-06
2.92663e-07
8.19094e-07
8.19211e-07
1.11394e-06
3.07972e-07
8.44423e-07
8.44524e-07
1.13507e-06
5.06408e-07
5.05554e-07
5.05554e-07
5.06412e-07
5.05552e-07
5.05549e-07
5.09644e-07
5.09644e-07
5.09644e-07
5.09645e-07
5.05555e-07
5.05546e-07
5.06412e-07
5.05557e-07
5.05548e-07
5.06399e-07
4.99643e-07
4.6746e-07
4.97418e-07
4.97416e-07
4.63845e-07
4.63855e-07
4.99615e-07
4.67456e-07
4.97424e-07
4.9743e-07
4.63864e-07
4.6387e-07
4.97414e-07
4.6386e-07
4.63859e-07
4.99647e-07
4.67473e-07
4.97414e-07
4.63851e-07
4.63853e-07
4.67456e-07
4.63975e-07
4.41639e-07
4.53891e-07
4.53904e-07
4.26908e-07
4.26923e-07
4.63973e-07
4.41627e-07
4.53913e-07
4.53919e-07
4.26934e-07
4.2694e-07
4.53912e-07
4.26915e-07
4.26934e-07
4.63986e-07
4.41643e-07
4.53903e-07
4.26911e-07
4.26924e-07
4.41643e-07
4.39636e-07
4.19357e-07
4.18691e-07
4.18705e-07
3.95826e-07
3.95836e-07
4.39629e-07
4.19359e-07
4.18717e-07
4.18723e-07
3.95842e-07
3.95853e-07
4.18719e-07
3.95825e-07
3.95852e-07
4.39639e-07
4.19371e-07
4.18706e-07
3.95823e-07
3.95833e-07
4.19353e-07
4.17704e-07
3.97528e-07
3.88704e-07
3.88713e-07
3.68557e-07
3.68567e-07
4.17701e-07
3.97554e-07
3.88716e-07
3.88729e-07
3.6855e-07
3.68578e-07
3.88728e-07
3.6855e-07
3.68578e-07
4.17695e-07
3.97596e-07
3.88709e-07
3.68544e-07
3.68561e-07
3.97541e-07
3.95888e-07
3.75793e-07
3.62199e-07
3.6221e-07
3.44062e-07
3.44076e-07
3.95936e-07
3.75854e-07
3.62185e-07
3.62219e-07
3.44026e-07
3.44079e-07
3.62219e-07
3.44054e-07
3.44081e-07
3.95892e-07
3.75872e-07
3.62203e-07
3.44051e-07
3.44067e-07
3.75844e-07
3.74213e-07
3.54711e-07
3.38305e-07
3.3832e-07
3.21843e-07
3.21855e-07
3.74277e-07
3.54742e-07
3.38266e-07
3.38321e-07
3.21803e-07
3.21848e-07
3.38324e-07
3.21832e-07
3.21857e-07
3.74285e-07
3.54705e-07
3.38308e-07
3.2183e-07
3.21839e-07
3.54741e-07
3.53331e-07
3.34917e-07
3.16614e-07
3.16625e-07
3.01683e-07
3.01687e-07
3.53383e-07
3.34923e-07
3.16577e-07
3.16615e-07
3.01654e-07
3.0167e-07
3.16625e-07
3.01664e-07
3.01684e-07
3.53323e-07
3.34879e-07
3.16607e-07
3.01657e-07
3.01667e-07
3.34914e-07
3.33746e-07
3.16976e-07
2.96953e-07
2.96955e-07
2.835e-07
2.83499e-07
3.33728e-07
3.16954e-07
2.96926e-07
2.96937e-07
2.83478e-07
2.8348e-07
2.96951e-07
2.83473e-07
2.83491e-07
3.33693e-07
3.17076e-07
2.96933e-07
2.83466e-07
2.83476e-07
3.17115e-07
3.16004e-07
3.01299e-07
2.79261e-07
2.79257e-07
2.67279e-07
2.67277e-07
3.16026e-07
3.01464e-07
2.79238e-07
2.7924e-07
2.67257e-07
2.67262e-07
2.79248e-07
2.67249e-07
2.67262e-07
3.15782e-07
3.01465e-07
2.79233e-07
2.67245e-07
2.6725e-07
3.01399e-07
3.00596e-07
2.88457e-07
2.63531e-07
2.63528e-07
2.53029e-07
2.53029e-07
3.00432e-07
2.88283e-07
2.63509e-07
2.63515e-07
2.53005e-07
2.53018e-07
2.63514e-07
2.52997e-07
2.5301e-07
3.0039e-07
2.8844e-07
2.63501e-07
2.52997e-07
2.52997e-07
2.88452e-07
2.87612e-07
2.78166e-07
2.49773e-07
2.49773e-07
2.40747e-07
2.40751e-07
2.87889e-07
2.78027e-07
2.49748e-07
2.49763e-07
2.4072e-07
2.40741e-07
2.49754e-07
2.40715e-07
2.40729e-07
2.87641e-07
2.78172e-07
2.49741e-07
2.40717e-07
2.40714e-07
2.78156e-07
2.77839e-07
2.71062e-07
2.37983e-07
2.37986e-07
2.30433e-07
2.30438e-07
2.78039e-07
2.71064e-07
2.37957e-07
2.37979e-07
2.30406e-07
2.30433e-07
2.37967e-07
2.304e-07
2.30418e-07
2.77855e-07
2.71202e-07
2.3795e-07
2.30406e-07
2.30396e-07
2.71211e-07
2.71256e-07
2.6715e-07
2.28163e-07
2.2817e-07
2.22094e-07
2.22102e-07
2.71294e-07
2.67214e-07
2.28138e-07
2.28166e-07
2.22069e-07
2.22102e-07
2.28153e-07
2.22063e-07
2.22085e-07
2.71155e-07
2.67214e-07
2.28128e-07
2.2207e-07
2.22054e-07
2.67245e-07
2.67461e-07
2.66279e-07
2.20319e-07
2.2033e-07
2.15731e-07
2.1574e-07
2.67495e-07
2.66319e-07
2.20296e-07
2.20332e-07
2.15707e-07
2.15747e-07
2.20315e-07
2.15701e-07
2.15726e-07
2.67511e-07
2.66308e-07
2.20281e-07
2.15708e-07
2.15687e-07
2.6628e-07
2.66934e-07
2.68421e-07
2.14457e-07
2.14469e-07
2.11357e-07
2.1137e-07
2.66951e-07
2.68449e-07
2.14435e-07
2.14477e-07
2.11335e-07
2.11377e-07
2.14453e-07
2.11323e-07
2.11353e-07
2.66959e-07
2.68442e-07
2.14413e-07
2.11333e-07
2.11307e-07
2.68407e-07
2.69741e-07
2.73893e-07
2.10589e-07
2.10601e-07
2.0898e-07
2.08991e-07
2.69734e-07
2.73874e-07
2.10568e-07
2.10609e-07
2.08957e-07
2.08999e-07
2.10584e-07
2.08937e-07
2.08971e-07
2.69752e-07
2.73882e-07
2.10538e-07
2.08948e-07
2.08926e-07
2.73857e-07
2.75857e-07
2.8286e-07
2.08721e-07
2.08735e-07
2.0865e-07
2.0866e-07
2.75857e-07
2.82659e-07
2.08699e-07
2.08743e-07
2.08625e-07
2.08669e-07
2.08713e-07
2.08599e-07
2.08634e-07
2.75874e-07
2.82885e-07
2.08666e-07
2.08617e-07
2.08596e-07
2.82376e-07
2.85251e-07
2.94885e-07
2.08862e-07
2.08876e-07
2.1031e-07
2.10324e-07
2.85354e-07
2.94796e-07
2.08838e-07
2.08884e-07
2.10285e-07
2.10334e-07
2.08855e-07
2.10253e-07
2.10302e-07
2.85286e-07
2.94998e-07
2.08805e-07
2.10268e-07
2.10259e-07
2.94497e-07
2.98132e-07
3.10557e-07
2.11062e-07
2.11077e-07
2.14066e-07
2.14083e-07
2.98265e-07
3.10429e-07
2.11038e-07
2.11087e-07
2.1404e-07
2.14093e-07
2.11051e-07
2.13999e-07
2.14056e-07
2.98119e-07
3.10558e-07
2.11008e-07
2.14018e-07
2.14015e-07
3.10169e-07
3.14471e-07
3.2977e-07
2.15338e-07
2.15357e-07
2.19911e-07
2.19938e-07
3.14646e-07
3.29076e-07
2.15313e-07
2.15364e-07
2.19885e-07
2.19943e-07
2.15323e-07
2.19836e-07
2.199e-07
3.14457e-07
3.29731e-07
2.15282e-07
2.19858e-07
2.19859e-07
3.29196e-07
3.34111e-07
3.51899e-07
2.21703e-07
2.21731e-07
2.27855e-07
2.27899e-07
3.34492e-07
3.51685e-07
2.21679e-07
2.21739e-07
2.27833e-07
2.27898e-07
2.21689e-07
2.27778e-07
2.27851e-07
3.34031e-07
3.5204e-07
2.21644e-07
2.27804e-07
2.27803e-07
3.51289e-07
3.5696e-07
3.76878e-07
2.30176e-07
2.30217e-07
2.37904e-07
2.37954e-07
3.57419e-07
3.76903e-07
2.30153e-07
2.30217e-07
2.37881e-07
2.37956e-07
2.30167e-07
2.37817e-07
2.37903e-07
3.57111e-07
3.77281e-07
2.30118e-07
2.37853e-07
2.37851e-07
3.76753e-07
3.83699e-07
4.05282e-07
2.40746e-07
2.40797e-07
2.50037e-07
2.50094e-07
3.83469e-07
4.04746e-07
2.40724e-07
2.40796e-07
2.50011e-07
2.50094e-07
2.40741e-07
2.4994e-07
2.50038e-07
3.83616e-07
4.0501e-07
2.40688e-07
2.49981e-07
2.49981e-07
4.05289e-07
4.12591e-07
4.35932e-07
2.53396e-07
2.5345e-07
2.64213e-07
2.64271e-07
4.12809e-07
4.35749e-07
2.53371e-07
2.53453e-07
2.64182e-07
2.64275e-07
2.53392e-07
2.64107e-07
2.64214e-07
4.12906e-07
4.35804e-07
2.53338e-07
2.64151e-07
2.64161e-07
4.35633e-07
4.44107e-07
4.69076e-07
2.68075e-07
2.68133e-07
2.80369e-07
2.80432e-07
4.44315e-07
4.68731e-07
2.68044e-07
2.68138e-07
2.80332e-07
2.80439e-07
2.68073e-07
2.80255e-07
2.80374e-07
4.44201e-07
4.69471e-07
2.68023e-07
2.80302e-07
2.80323e-07
4.69348e-07
4.77527e-07
5.03536e-07
2.84714e-07
2.84775e-07
2.98427e-07
2.98491e-07
4.77651e-07
5.0413e-07
2.84677e-07
2.84787e-07
2.98379e-07
2.98502e-07
2.84716e-07
2.98302e-07
2.9843e-07
4.77611e-07
5.05017e-07
2.84666e-07
2.98352e-07
2.98379e-07
5.03638e-07
5.13219e-07
5.40411e-07
3.03234e-07
3.03296e-07
3.18284e-07
3.18354e-07
5.12698e-07
5.39906e-07
3.03189e-07
3.03311e-07
3.18227e-07
3.18369e-07
3.03236e-07
3.18147e-07
3.18289e-07
5.12585e-07
5.4123e-07
3.03185e-07
3.18207e-07
3.18237e-07
5.40288e-07
5.49171e-07
5.76696e-07
3.23527e-07
3.2359e-07
3.39829e-07
3.399e-07
5.48955e-07
5.7687e-07
3.23471e-07
3.23612e-07
3.39759e-07
3.3992e-07
3.23529e-07
3.39678e-07
3.39835e-07
5.4869e-07
5.77872e-07
3.23475e-07
3.39743e-07
3.39776e-07
5.76514e-07
5.86729e-07
6.14429e-07
3.45476e-07
3.45535e-07
3.62933e-07
3.62994e-07
5.86209e-07
6.14404e-07
3.4541e-07
3.45564e-07
3.62852e-07
3.63024e-07
3.4548e-07
3.62761e-07
3.6294e-07
5.85693e-07
6.14898e-07
3.45418e-07
3.62833e-07
3.62872e-07
6.15115e-07
6.24041e-07
6.52425e-07
3.68943e-07
3.68996e-07
3.87445e-07
3.87501e-07
6.23651e-07
6.5266e-07
3.68867e-07
3.69032e-07
3.87359e-07
3.87534e-07
3.68949e-07
3.87252e-07
3.87456e-07
6.24276e-07
6.52157e-07
3.68879e-07
3.87333e-07
3.87376e-07
6.52981e-07
6.61728e-07
6.89537e-07
3.93786e-07
3.93826e-07
4.13209e-07
4.13254e-07
6.61134e-07
6.89791e-07
3.93698e-07
3.93868e-07
4.13112e-07
4.13289e-07
3.93792e-07
4.12996e-07
4.13216e-07
6.61617e-07
6.89238e-07
3.93708e-07
4.13085e-07
4.13129e-07
6.90528e-07
6.98787e-07
7.26237e-07
4.19834e-07
4.19872e-07
4.40057e-07
4.401e-07
6.98265e-07
7.25901e-07
4.19739e-07
4.19914e-07
4.39955e-07
4.40143e-07
4.19844e-07
4.3983e-07
4.4007e-07
6.99036e-07
7.25623e-07
4.1975e-07
4.39929e-07
4.3997e-07
7.27311e-07
7.35393e-07
7.62566e-07
4.46932e-07
4.46963e-07
4.6783e-07
4.67873e-07
7.3558e-07
7.61368e-07
4.46831e-07
4.47007e-07
4.67722e-07
4.67913e-07
4.46945e-07
4.67593e-07
4.67844e-07
7.36206e-07
7.61563e-07
4.4684e-07
4.67698e-07
4.67739e-07
7.63206e-07
7.71092e-07
7.97471e-07
4.74906e-07
4.74942e-07
4.96347e-07
4.96395e-07
7.72149e-07
7.96456e-07
4.74804e-07
4.74982e-07
4.9624e-07
4.96438e-07
4.74919e-07
4.96112e-07
4.96372e-07
7.72321e-07
7.96674e-07
4.74814e-07
4.96225e-07
4.96263e-07
7.98263e-07
8.05759e-07
8.30443e-07
5.03582e-07
5.03622e-07
5.2544e-07
5.25492e-07
8.07077e-07
8.30424e-07
5.03481e-07
5.03667e-07
5.25331e-07
5.25543e-07
5.03608e-07
5.25211e-07
5.25475e-07
8.07295e-07
8.30685e-07
5.03497e-07
5.2533e-07
5.25365e-07
8.32106e-07
8.40433e-07
8.63146e-07
5.32796e-07
5.32837e-07
5.54936e-07
5.54992e-07
8.40908e-07
8.63216e-07
5.32693e-07
5.32888e-07
5.54827e-07
5.55047e-07
5.32827e-07
5.54712e-07
5.54977e-07
8.41103e-07
8.63471e-07
5.32716e-07
5.54833e-07
5.54864e-07
8.64922e-07
8.73451e-07
8.94918e-07
5.62367e-07
5.62409e-07
5.84665e-07
5.84722e-07
8.73447e-07
8.94852e-07
5.62263e-07
5.62468e-07
5.84552e-07
5.84779e-07
5.62401e-07
5.84443e-07
5.84709e-07
8.73694e-07
8.95021e-07
5.62288e-07
5.84567e-07
5.84593e-07
8.9649e-07
9.04973e-07
9.2537e-07
5.92127e-07
5.92168e-07
6.14462e-07
6.14514e-07
9.0489e-07
9.25267e-07
5.92021e-07
5.92229e-07
6.14344e-07
6.14574e-07
5.92166e-07
6.14238e-07
6.14513e-07
9.05016e-07
9.25431e-07
5.9205e-07
6.14362e-07
6.14391e-07
9.25175e-07
9.35182e-07
9.54643e-07
6.21916e-07
6.21951e-07
6.44161e-07
6.44203e-07
9.35095e-07
9.54451e-07
6.21804e-07
6.22015e-07
6.44042e-07
6.44269e-07
6.21959e-07
6.43932e-07
6.44212e-07
9.35231e-07
9.54651e-07
6.2184e-07
6.44064e-07
6.44088e-07
9.5429e-07
9.64192e-07
9.82629e-07
6.51568e-07
6.51594e-07
6.73603e-07
6.73648e-07
9.64049e-07
9.82496e-07
6.51455e-07
6.51662e-07
6.73481e-07
6.73717e-07
6.51606e-07
6.73382e-07
6.73654e-07
9.64207e-07
9.82678e-07
6.51489e-07
6.73519e-07
6.73536e-07
9.82295e-07
9.91896e-07
1.00946e-06
6.80923e-07
6.80951e-07
7.02662e-07
7.02706e-07
9.91859e-07
1.00939e-06
6.80811e-07
6.81022e-07
7.02542e-07
7.02776e-07
6.80965e-07
7.02451e-07
7.02715e-07
9.91981e-07
1.00952e-06
6.80845e-07
7.0259e-07
7.02594e-07
1.00921e-06
1.01846e-06
1.03515e-06
7.09865e-07
7.09897e-07
7.31214e-07
7.31258e-07
1.01843e-06
1.03502e-06
7.0975e-07
7.09967e-07
7.31091e-07
7.31331e-07
7.09913e-07
7.31012e-07
7.31275e-07
1.01863e-06
1.03524e-06
7.0979e-07
7.31155e-07
7.31152e-07
1.03497e-06
1.04398e-06
1.05976e-06
7.38273e-07
7.38305e-07
7.5915e-07
7.59195e-07
1.04388e-06
1.05967e-06
7.38156e-07
7.38377e-07
7.59024e-07
7.59266e-07
7.3833e-07
7.58959e-07
7.59222e-07
1.04408e-06
1.05986e-06
7.38204e-07
7.59093e-07
7.59091e-07
1.05956e-06
1.06828e-06
1.08328e-06
7.66037e-07
7.66072e-07
7.86366e-07
7.86409e-07
1.06815e-06
1.08395e-06
7.65919e-07
7.66141e-07
7.86244e-07
7.86481e-07
7.66107e-07
7.86182e-07
7.86452e-07
1.06836e-06
1.08335e-06
7.65976e-07
7.8631e-07
7.86319e-07
1.08313e-06
1.09153e-06
1.10593e-06
7.93056e-07
7.9309e-07
8.12783e-07
8.12821e-07
1.09036e-06
1.10644e-06
7.92944e-07
7.93161e-07
8.12664e-07
8.12891e-07
7.93142e-07
8.12604e-07
8.12877e-07
1.09164e-06
1.10597e-06
7.93006e-07
8.12725e-07
8.12742e-07
1.10561e-06
1.11323e-06
1.12798e-06
8.19258e-07
8.19294e-07
8.38326e-07
8.38365e-07
1.11242e-06
1.12788e-06
8.19148e-07
8.19363e-07
8.38214e-07
8.3843e-07
8.19358e-07
8.38157e-07
8.38435e-07
1.11326e-06
1.12793e-06
8.19219e-07
8.38264e-07
8.38294e-07
1.12716e-06
1.13402e-06
1.1482e-06
8.44577e-07
8.44612e-07
8.62942e-07
8.62988e-07
1.13365e-06
1.14844e-06
8.44474e-07
8.44675e-07
8.62838e-07
8.63045e-07
8.44685e-07
8.62787e-07
8.63064e-07
1.13413e-06
1.14825e-06
8.44545e-07
8.62887e-07
8.62926e-07
1.14824e-06
5.35663e-07
5.35602e-07
5.35656e-07
5.35656e-07
5.34619e-07
5.35515e-07
5.33378e-07
5.35656e-07
5.34622e-07
5.35515e-07
5.35656e-07
5.33576e-07
5.3525e-07
5.35559e-07
5.36339e-07
1.10528e-06
3.8657e-06
9.38399e-07
4.59195e-06
1.26149e-05
1.66857e-05
1.10602e-06
3.86606e-06
9.39862e-07
4.59277e-06
4.95569e-07
4.95569e-07
4.95569e-07
4.57237e-07
4.57237e-07
4.57237e-07
4.57236e-07
5.43441e-07
1.23122e-06
4.95577e-07
4.85588e-07
5.26032e-07
1.21748e-06
4.82311e-07
1.26129e-05
1.66929e-05
5.43514e-07
4.95578e-07
1.22963e-06
4.85587e-07
5.26087e-07
4.82314e-07
1.21854e-06
2.54092e-06
2.54472e-06
4.84304e-07
2.3899e-06
2.38654e-06
1.42736e-06
5.585e-06
1.32943e-06
6.13491e-06
2.13491e-05
2.31628e-05
1.42771e-06
5.58507e-06
1.32971e-06
6.13515e-06
4.45583e-07
4.45584e-07
4.45583e-07
4.13563e-07
4.13563e-07
4.13564e-07
4.13564e-07
5.8728e-07
1.20107e-06
4.46469e-07
4.4447e-07
5.74262e-07
1.20913e-06
4.35733e-07
2.13487e-05
2.31638e-05
5.8742e-07
4.46474e-07
1.20058e-06
4.44462e-07
5.74359e-07
4.3574e-07
1.21022e-06
2.31081e-06
2.30956e-06
4.53734e-07
2.34582e-06
2.34647e-06
1.65924e-06
6.91731e-06
1.59168e-06
7.32415e-06
2.46584e-05
2.49466e-05
1.65852e-06
6.91775e-06
1.59166e-06
7.32453e-06
4.03775e-07
4.03777e-07
4.03777e-07
3.76718e-07
3.76717e-07
3.7672e-07
3.7672e-07
6.15218e-07
1.24833e-06
4.06605e-07
4.10797e-07
6.08281e-07
1.27011e-06
3.97791e-07
2.46591e-05
2.4948e-05
6.15482e-07
4.0661e-07
1.24756e-06
4.10795e-07
6.08182e-07
3.97797e-07
1.27153e-06
2.46237e-06
2.46279e-06
4.30335e-07
2.5198e-06
2.52074e-06
1.80681e-06
7.84733e-06
1.76795e-06
8.10359e-06
2.47366e-05
2.4433e-05
1.80688e-06
7.84739e-06
1.76727e-06
8.10407e-06
3.68391e-07
3.68394e-07
3.68395e-07
3.4522e-07
3.4522e-07
3.45222e-07
3.45224e-07
6.25734e-07
1.31747e-06
3.73545e-07
3.81792e-07
6.24506e-07
1.33933e-06
3.66094e-07
2.47344e-05
2.4435e-05
6.25747e-07
3.73547e-07
1.31728e-06
3.81789e-07
6.24341e-07
3.66097e-07
1.33925e-06
2.62381e-06
2.62476e-06
4.08441e-07
2.6699e-06
2.67169e-06
1.88974e-06
8.395e-06
1.86841e-06
8.53127e-06
2.36825e-05
2.3266e-05
1.88824e-06
8.39537e-06
1.86955e-06
8.53202e-06
3.3804e-07
3.38043e-07
3.38045e-07
3.17929e-07
3.17931e-07
3.17934e-07
3.17936e-07
6.21121e-07
1.3759e-06
3.45296e-07
3.55996e-07
6.24797e-07
1.39222e-06
3.38816e-07
2.36843e-05
2.3269e-05
6.21183e-07
3.45296e-07
1.37573e-06
3.55991e-07
6.24899e-07
3.38818e-07
1.3921e-06
2.75688e-06
2.75727e-06
3.8666e-07
2.79907e-06
2.80291e-06
1.92588e-06
8.66139e-06
1.9179e-06
8.71751e-06
2.24938e-05
2.21225e-05
1.92655e-06
8.66216e-06
1.91906e-06
8.71837e-06
3.11663e-07
3.11665e-07
3.11667e-07
2.94003e-07
2.94007e-07
2.94009e-07
2.94011e-07
6.07677e-07
1.41962e-06
3.20526e-07
3.32678e-07
6.1448e-07
1.43135e-06
3.14772e-07
2.24946e-05
2.21243e-05
6.07739e-07
3.20527e-07
1.41942e-06
3.32677e-07
6.14503e-07
3.14775e-07
1.43147e-06
2.89162e-06
2.89264e-06
3.65182e-07
2.94267e-06
2.94469e-06
1.94387e-06
8.75747e-06
1.9398e-06
8.76816e-06
2.14724e-05
2.11817e-05
1.9442e-06
8.75878e-06
1.94029e-06
8.7696e-06
2.88476e-07
2.88477e-07
2.8848e-07
2.72829e-07
2.7283e-07
2.7283e-07
2.72833e-07
5.90502e-07
1.45549e-06
2.98415e-07
3.11498e-07
5.98315e-07
1.46715e-06
2.9324e-07
2.14721e-05
2.11817e-05
5.90524e-07
2.98415e-07
1.45508e-06
3.11495e-07
5.98313e-07
2.93242e-07
1.46699e-06
3.04985e-06
3.04876e-06
3.44638e-07
3.10503e-06
3.10912e-06
1.96224e-06
8.76533e-06
1.95625e-06
8.75974e-06
2.06735e-05
2.04541e-05
1.96219e-06
8.76678e-06
1.95662e-06
8.76119e-06
2.6791e-07
2.67909e-07
2.67913e-07
2.53953e-07
2.53951e-07
2.53949e-07
2.53953e-07
5.74013e-07
1.49388e-06
2.78475e-07
2.92323e-07
5.81123e-07
1.50829e-06
2.73792e-07
2.06732e-05
2.04551e-05
5.74023e-07
2.78473e-07
1.49359e-06
2.92315e-07
5.81134e-07
2.73792e-07
1.50877e-06
3.22944e-06
3.22809e-06
3.25687e-07
3.29077e-06
3.29476e-06
1.99297e-06
8.74583e-06
1.98231e-06
8.73914e-06
2.0074e-05
1.99131e-05
1.99258e-06
8.7473e-06
1.98229e-06
8.74062e-06
2.4955e-07
2.49548e-07
2.49552e-07
2.37044e-07
2.37042e-07
2.3704e-07
2.37042e-07
5.61439e-07
1.5417e-06
2.60419e-07
2.75115e-07
5.66683e-07
1.56117e-06
2.56177e-07
2.00741e-05
1.99143e-05
5.61474e-07
2.60416e-07
1.54163e-06
2.7511e-07
5.66706e-07
2.56177e-07
1.56132e-06
3.42476e-06
3.4252e-06
3.0899e-07
3.49464e-06
3.49559e-06
2.04318e-06
8.73017e-06
2.02631e-06
8.72821e-06
1.96346e-05
1.95203e-05
2.04346e-06
8.73172e-06
2.02624e-06
8.72986e-06
2.33092e-07
2.33091e-07
2.33093e-07
2.21858e-07
2.21855e-07
2.21855e-07
2.21855e-07
5.55447e-07
1.60399e-06
2.44074e-07
2.59876e-07
5.57574e-07
1.62501e-06
2.40241e-07
1.96358e-05
1.95197e-05
5.55481e-07
2.44072e-07
1.60277e-06
2.59875e-07
5.57485e-07
2.40242e-07
1.62762e-06
3.63287e-06
3.63355e-06
2.94475e-07
3.70064e-06
3.70348e-06
2.11778e-06
8.72803e-06
2.09234e-06
8.73117e-06
1.93208e-05
1.92389e-05
2.11791e-06
8.72978e-06
2.09211e-06
8.73296e-06
2.18306e-07
2.18306e-07
2.18306e-07
2.08207e-07
2.08206e-07
2.08206e-07
2.08205e-07
5.56786e-07
1.68017e-06
2.29329e-07
2.46609e-07
5.55893e-07
1.70538e-06
2.25883e-07
1.93232e-05
1.92401e-05
5.56831e-07
2.29328e-07
1.67814e-06
2.46612e-07
5.55924e-07
2.25886e-07
1.70793e-06
3.84254e-06
3.84295e-06
2.83044e-07
3.90933e-06
3.91164e-06
2.21793e-06
8.73841e-06
2.18348e-06
8.74535e-06
1.91014e-05
1.90434e-05
2.21809e-06
8.74031e-06
2.18329e-06
8.74727e-06
2.05017e-07
2.05017e-07
2.05015e-07
1.95946e-07
1.95945e-07
1.95946e-07
1.95943e-07
5.6615e-07
1.76914e-06
2.16108e-07
2.35311e-07
5.62605e-07
1.79838e-06
2.13034e-07
1.91027e-05
1.90446e-05
5.66165e-07
2.16107e-07
1.76705e-06
2.35315e-07
5.62604e-07
2.13036e-07
1.80089e-06
4.04594e-06
4.04621e-06
2.74316e-07
4.11013e-06
4.11233e-06
2.34278e-06
8.75725e-06
2.29989e-06
8.76595e-06
1.89479e-05
1.89073e-05
2.34247e-06
8.75925e-06
2.3001e-06
8.76793e-06
1.93084e-07
1.93085e-07
1.93082e-07
1.84954e-07
1.84955e-07
1.84956e-07
1.84953e-07
5.853e-07
1.86932e-06
2.04349e-07
2.25986e-07
5.78451e-07
1.90206e-06
2.0163e-07
1.89493e-05
1.89086e-05
5.85264e-07
2.04348e-07
1.86725e-06
2.25991e-07
5.78455e-07
2.01631e-07
1.90457e-06
4.23765e-06
4.23726e-06
2.6885e-07
4.29633e-06
4.29885e-06
2.48971e-06
8.77904e-06
2.43988e-06
8.78783e-06
1.88402e-05
1.88114e-05
2.49076e-06
8.78105e-06
2.43896e-06
8.78981e-06
1.82396e-07
1.82398e-07
1.82394e-07
1.75139e-07
1.7514e-07
1.75142e-07
1.75137e-07
6.14158e-07
1.97661e-06
1.93997e-07
2.18637e-07
6.04156e-07
2.01517e-06
1.91621e-07
1.88415e-05
1.88127e-05
6.14689e-07
1.93994e-07
1.97632e-06
2.18642e-07
6.03789e-07
1.91622e-07
2.01298e-06
4.41081e-06
4.4133e-06
2.66385e-07
4.46481e-06
4.46524e-06
2.65333e-06
8.80028e-06
2.59905e-06
8.80845e-06
1.87623e-05
1.8741e-05
2.65444e-06
8.80234e-06
2.59828e-06
8.81045e-06
1.72863e-07
1.72865e-07
1.7286e-07
1.66422e-07
1.66422e-07
1.66425e-07
1.66419e-07
6.53471e-07
2.09023e-06
1.85007e-07
2.13265e-07
6.40111e-07
2.13027e-06
1.82964e-07
1.87636e-05
1.87423e-05
6.54299e-07
1.85002e-07
2.09224e-06
2.13272e-07
6.39584e-07
1.82963e-07
2.12829e-06
4.56485e-06
4.56764e-06
2.66937e-07
4.61208e-06
4.6125e-06
2.82685e-06
8.81977e-06
2.77082e-06
8.8271e-06
1.87025e-05
1.86862e-05
2.82839e-06
8.82182e-06
2.76984e-06
8.8291e-06
1.6441e-07
1.64413e-07
1.64406e-07
1.58737e-07
1.58737e-07
1.58741e-07
1.58734e-07
7.03303e-07
2.2062e-06
1.7734e-07
2.09882e-07
6.86486e-07
2.24586e-06
1.75622e-07
1.87035e-05
1.86874e-05
7.03791e-07
1.77334e-07
2.20674e-06
2.09891e-07
6.8588e-07
1.75621e-07
2.24594e-06
4.69752e-06
4.6995e-06
2.70717e-07
4.73796e-06
4.73992e-06
3.00388e-06
8.83737e-06
2.94552e-06
8.84414e-06
1.86531e-05
1.864e-05
3.00406e-06
8.83945e-06
2.94604e-06
8.84616e-06
1.56973e-07
1.56977e-07
1.5697e-07
1.5203e-07
1.5203e-07
1.52034e-07
1.52027e-07
7.62719e-07
2.3209e-06
1.70968e-07
2.08498e-07
7.42708e-07
2.35719e-06
1.69569e-07
1.86541e-05
1.86412e-05
7.62975e-07
1.7096e-07
2.32113e-06
2.0851e-07
7.42348e-07
1.69566e-07
2.35906e-06
4.80969e-06
4.81283e-06
2.77687e-07
4.8417e-06
4.84395e-06
3.17274e-06
8.8536e-06
3.11877e-06
8.86025e-06
1.86101e-05
1.85985e-05
3.17327e-06
8.85556e-06
3.11885e-06
8.86237e-06
1.50501e-07
1.50506e-07
1.50498e-07
1.46253e-07
1.46252e-07
1.46256e-07
1.4625e-07
8.30918e-07
2.43293e-06
1.65874e-07
2.09158e-07
8.08356e-07
2.46596e-06
1.64791e-07
1.86112e-05
1.86e-05
8.31425e-07
1.65866e-07
2.43136e-06
2.09172e-07
8.08018e-07
1.64787e-07
2.46783e-06
4.9031e-06
4.90505e-06
2.87983e-07
4.93099e-06
4.93292e-06
3.32931e-06
8.86846e-06
3.28007e-06
8.87525e-06
1.8571e-05
1.85608e-05
3.33047e-06
8.87055e-06
3.27971e-06
8.87733e-06
1.4495e-07
1.44954e-07
1.44947e-07
1.41369e-07
1.41367e-07
1.41372e-07
1.41366e-07
9.06835e-07
2.53563e-06
1.6205e-07
2.11867e-07
8.81705e-07
2.56935e-06
1.61281e-07
1.85724e-05
1.85622e-05
9.07482e-07
1.62043e-07
2.53552e-06
2.11885e-07
8.8109e-07
1.61278e-07
2.56935e-06
4.97954e-06
4.98287e-06
3.01857e-07
5.00266e-06
5.00316e-06
3.46715e-06
8.88297e-06
3.4249e-06
8.88939e-06
1.8535e-05
1.85254e-05
3.46858e-06
8.88502e-06
3.42426e-06
8.89141e-06
1.40282e-07
1.40287e-07
1.40281e-07
1.37346e-07
1.37345e-07
1.37349e-07
1.37344e-07
9.87862e-07
2.63152e-06
1.59501e-07
2.16655e-07
9.61232e-07
2.66253e-06
1.59044e-07
1.85363e-05
1.85269e-05
9.88111e-07
1.59495e-07
2.63177e-06
2.16678e-07
9.60929e-07
1.59042e-07
2.66265e-06
5.04233e-06
5.0457e-06
3.19176e-07
5.0612e-06
5.06174e-06
3.58526e-06
8.89649e-06
3.54871e-06
8.90248e-06
1.8501e-05
1.8492e-05
3.58497e-06
8.89852e-06
3.54928e-06
8.90448e-06
1.36469e-07
1.36474e-07
1.36468e-07
1.34159e-07
1.34157e-07
1.34163e-07
1.34157e-07
1.07257e-06
2.71909e-06
1.58235e-07
2.23546e-07
1.04438e-06
2.74708e-06
1.58087e-07
1.85026e-05
1.84939e-05
1.07238e-06
1.58229e-07
2.71929e-06
2.23573e-07
1.04466e-06
1.58082e-07
2.74739e-06
5.09361e-06
5.09697e-06
3.3976e-07
5.10899e-06
5.10956e-06
3.68123e-06
8.90899e-06
3.65236e-06
8.91444e-06
1.84694e-05
1.84614e-05
3.68154e-06
8.91094e-06
3.65255e-06
8.91637e-06
1.33486e-07
1.33491e-07
1.33485e-07
1.31786e-07
1.31784e-07
1.3179e-07
1.31785e-07
1.15738e-06
2.79779e-06
1.58242e-07
2.32536e-07
1.12988e-06
2.82284e-06
1.58445e-07
1.84711e-05
1.84632e-05
1.15767e-06
1.58228e-07
2.79798e-06
2.32568e-07
1.12978e-06
1.58445e-07
2.82297e-06
5.13559e-06
5.1389e-06
3.63756e-07
5.14758e-06
5.14872e-06
3.75871e-06
8.92021e-06
3.73554e-06
8.92508e-06
1.84404e-05
1.84332e-05
3.75826e-06
8.92207e-06
3.73563e-06
8.92688e-06
1.31311e-07
1.31317e-07
1.31311e-07
1.30211e-07
1.30209e-07
1.30216e-07
1.30211e-07
1.2416e-06
2.8678e-06
1.59566e-07
2.4362e-07
1.21408e-06
2.88994e-06
1.601e-07
1.8442e-05
1.84348e-05
1.24183e-06
1.59555e-07
2.86796e-06
2.43659e-07
1.21418e-06
1.60101e-07
2.8901e-06
5.17131e-06
5.17337e-06
3.9052e-07
5.17891e-06
5.18169e-06
3.81861e-06
8.93045e-06
3.80076e-06
8.93414e-06
1.84136e-05
1.84072e-05
3.81871e-06
8.93232e-06
3.80033e-06
8.93602e-06
1.29929e-07
1.29936e-07
1.2993e-07
1.29421e-07
1.29419e-07
1.29427e-07
1.29422e-07
1.3222e-06
2.92977e-06
1.62217e-07
2.56774e-07
1.29611e-06
2.94919e-06
1.63084e-07
1.84151e-05
1.84087e-05
1.32248e-06
1.62205e-07
2.92983e-06
2.56815e-07
1.2959e-06
1.63086e-07
2.94928e-06
5.19987e-06
5.20174e-06
4.2021e-07
5.2062e-06
5.20808e-06
3.86366e-06
8.93896e-06
3.8509e-06
8.94223e-06
1.83893e-05
1.83835e-05
3.8639e-06
8.94095e-06
3.85099e-06
8.94417e-06
1.29327e-07
1.29335e-07
1.2933e-07
1.29394e-07
1.29395e-07
1.29401e-07
1.29399e-07
1.3986e-06
2.98421e-06
1.66212e-07
2.7194e-07
1.37379e-06
3.00131e-06
1.67418e-07
1.83906e-05
1.8385e-05
1.39857e-06
1.66202e-07
2.98428e-06
2.71983e-07
1.37365e-06
1.67424e-07
3.00143e-06
5.22324e-06
5.22495e-06
4.523e-07
5.22899e-06
5.23052e-06
3.89922e-06
8.94655e-06
3.88846e-06
8.94932e-06
1.83672e-05
1.83622e-05
3.89938e-06
8.94839e-06
3.88865e-06
8.95128e-06
1.29509e-07
1.29519e-07
1.29513e-07
1.30138e-07
1.30137e-07
1.30147e-07
1.30143e-07
1.4689e-06
3.03215e-06
1.71568e-07
2.89048e-07
1.44608e-06
3.04727e-06
1.73113e-07
1.83685e-05
1.83636e-05
1.46864e-06
1.7156e-07
3.03222e-06
2.89094e-07
1.44653e-06
1.73122e-07
3.04734e-06
5.24302e-06
5.2448e-06
4.86211e-07
5.24745e-06
5.24974e-06
3.92561e-06
8.95302e-06
3.91734e-06
8.95551e-06
1.83473e-05
1.8343e-05
3.92578e-06
8.95488e-06
3.91752e-06
8.95742e-06
1.30448e-07
1.30459e-07
1.30454e-07
1.31647e-07
1.31646e-07
1.31658e-07
1.31654e-07
1.53317e-06
3.07447e-06
1.7829e-07
3.08006e-07
1.51284e-06
3.08781e-06
1.80177e-07
1.83485e-05
1.83444e-05
1.53307e-06
1.78285e-07
3.07455e-06
3.08065e-07
1.51302e-06
1.80189e-07
3.08789e-06
5.25981e-06
5.26168e-06
5.21578e-07
5.26375e-06
5.26569e-06
3.9458e-06
8.95873e-06
3.93945e-06
8.96132e-06
1.83295e-05
1.83261e-05
3.94596e-06
8.96081e-06
3.9396e-06
8.96321e-06
1.32148e-07
1.32161e-07
1.32156e-07
1.33916e-07
1.33914e-07
1.33928e-07
1.33925e-07
1.59145e-06
3.11193e-06
1.86382e-07
3.2871e-07
1.57312e-06
3.12372e-06
1.88609e-07
1.83307e-05
1.83274e-05
1.59115e-06
1.8638e-07
3.11202e-06
3.28777e-07
1.57333e-06
1.88626e-07
3.12388e-06
5.27428e-06
5.27629e-06
5.58375e-07
5.27784e-06
5.27957e-06
3.96141e-06
8.96412e-06
3.95659e-06
8.96671e-06
1.8314e-05
1.83113e-05
3.96146e-06
8.9663e-06
3.95668e-06
8.96866e-06
1.34608e-07
1.34624e-07
1.34619e-07
1.36945e-07
1.36942e-07
1.36959e-07
1.36956e-07
1.64358e-06
3.14524e-06
1.95835e-07
3.51037e-07
1.62746e-06
3.15572e-06
1.98401e-07
1.83151e-05
1.83126e-05
1.64376e-06
1.95833e-07
3.14536e-06
3.51103e-07
1.62728e-06
1.98414e-07
3.15591e-06
5.28698e-06
5.28895e-06
5.95263e-07
5.29014e-06
5.292e-06
3.97358e-06
8.96947e-06
3.97012e-06
8.97207e-06
1.83007e-05
1.82988e-05
3.97374e-06
8.9717e-06
3.9701e-06
8.974e-06
1.37829e-07
1.37848e-07
1.37842e-07
1.40737e-07
1.40732e-07
1.40753e-07
1.4075e-07
1.69066e-06
3.17505e-06
2.06627e-07
3.74842e-07
1.67577e-06
3.18445e-06
2.09525e-07
1.83018e-05
1.83e-05
1.69037e-06
2.06629e-07
3.17518e-06
3.74917e-07
1.67605e-06
2.09544e-07
3.18464e-06
5.29832e-06
5.30024e-06
6.34091e-07
5.30113e-06
5.30299e-06
3.98361e-06
8.97491e-06
3.98073e-06
8.97756e-06
1.82897e-05
1.82887e-05
3.98372e-06
8.97716e-06
3.98112e-06
8.97954e-06
1.41811e-07
1.41833e-07
1.41828e-07
1.45296e-07
1.45287e-07
1.45312e-07
1.4531e-07
1.73215e-06
3.20197e-06
2.18735e-07
3.99979e-07
1.71947e-06
3.21042e-06
2.21955e-07
1.82907e-05
1.82898e-05
1.73216e-06
2.18743e-07
3.20206e-06
4.00065e-07
1.71951e-06
2.21986e-07
3.21055e-06
5.30868e-06
5.31057e-06
6.71847e-07
5.3112e-06
5.3131e-06
3.99203e-06
8.98064e-06
3.98981e-06
8.98336e-06
1.8281e-05
1.82809e-05
3.99217e-06
8.98287e-06
3.99003e-06
8.98537e-06
1.4656e-07
1.46587e-07
1.46581e-07
1.50625e-07
1.50613e-07
1.50643e-07
1.5064e-07
1.7697e-06
3.22647e-06
2.32125e-07
4.26286e-07
1.75836e-06
3.23421e-06
2.35659e-07
1.8282e-05
1.8282e-05
1.76986e-06
2.32141e-07
3.22726e-06
4.26381e-07
1.75839e-06
2.35699e-07
3.23342e-06
5.31829e-06
5.3202e-06
7.08975e-07
5.32073e-06
5.32261e-06
3.99923e-06
8.98691e-06
3.99743e-06
8.98958e-06
1.82748e-05
1.82755e-05
3.99933e-06
8.98903e-06
3.9976e-06
8.99173e-06
1.52081e-07
1.52111e-07
1.52105e-07
1.5673e-07
1.56715e-07
1.56749e-07
1.56747e-07
1.80365e-06
3.24901e-06
2.46753e-07
4.53603e-07
1.79336e-06
3.25611e-06
2.50587e-07
1.82757e-05
1.82765e-05
1.80372e-06