/*--------------------------------*- C++ -*----------------------------------*\
| =========                 |                                                 |
| \\      /  F ield         | OpenFOAM: The Open Source CFD Toolbox           |
|  \\    /   O peration     | Version:  v2012                                 |
|   \\  /    A nd           | Website:  www.openfoam.com                      |
|    \\/     M anipulation  |                                                 |
\*---------------------------------------------------------------------------*/
FoamFile
{
    version     2.0;
    format      ascii;
    class       volScalarField;
    location    "300";
    object      k;
}
// * * * * * * * * * * * * * * * * * * * * * * * * * * * * * * * * * * * * * //

dimensions      [0 2 -2 0 0 0 0];


internalField   nonuniform List<scalar> 
85864
(
3.58933e-05
3.58914e-05
3.58914e-05
3.59958e-05
3.39293e-05
3.38874e-05
3.38875e-05
3.39601e-05
3.21569e-05
3.20041e-05
3.20042e-05
3.19448e-05
3.05328e-05
3.02228e-05
3.02227e-05
2.99771e-05
2.90301e-05
2.85455e-05
2.85451e-05
2.81092e-05
2.76314e-05
2.6977e-05
2.69767e-05
2.63756e-05
2.63258e-05
2.55197e-05
2.55193e-05
2.4791e-05
2.51055e-05
2.41728e-05
2.41721e-05
2.3361e-05
2.39648e-05
2.29377e-05
2.29368e-05
2.20873e-05
2.28992e-05
2.18132e-05
2.18122e-05
2.09686e-05
2.19049e-05
2.07968e-05
2.07959e-05
1.99954e-05
2.09788e-05
1.98856e-05
1.98848e-05
1.91628e-05
2.01159e-05
1.90775e-05
1.90769e-05
1.84688e-05
1.93149e-05
1.83694e-05
1.83689e-05
1.79085e-05
1.8575e-05
1.77579e-05
1.77576e-05
1.74775e-05
1.78935e-05
1.72416e-05
1.72413e-05
1.71672e-05
1.72681e-05
1.68195e-05
1.68193e-05
1.69847e-05
1.66967e-05
1.64908e-05
1.64906e-05
1.69383e-05
1.6178e-05
1.62555e-05
1.62552e-05
1.70309e-05
1.57096e-05
1.61133e-05
1.61132e-05
1.72515e-05
1.52898e-05
1.6064e-05
1.6064e-05
1.76e-05
1.49179e-05
1.61056e-05
1.61057e-05
1.80776e-05
1.45928e-05
1.62385e-05
1.62389e-05
1.8671e-05
1.4314e-05
1.6461e-05
1.64614e-05
1.93823e-05
1.40811e-05
1.67703e-05
1.6771e-05
2.0177e-05
1.38936e-05
1.71636e-05
1.71647e-05
2.10301e-05
1.37512e-05
1.76372e-05
1.76387e-05
2.19718e-05
1.36538e-05
1.81873e-05
1.8189e-05
2.29871e-05
1.36015e-05
1.88094e-05
1.88111e-05
2.40256e-05
1.35948e-05
1.94984e-05
1.95002e-05
2.50885e-05
1.36331e-05
2.02488e-05
2.02509e-05
2.61721e-05
1.37169e-05
2.1055e-05
2.10574e-05
2.72313e-05
1.38467e-05
2.19108e-05
2.19135e-05
2.83108e-05
1.40226e-05
2.28098e-05
2.28128e-05
2.93481e-05
1.42447e-05
2.37455e-05
2.37488e-05
3.04122e-05
1.45131e-05
2.47119e-05
2.47153e-05
3.13951e-05
1.48277e-05
2.57025e-05
2.57058e-05
3.24327e-05
1.51881e-05
2.67112e-05
2.67143e-05
3.34133e-05
1.55939e-05
2.77318e-05
2.77351e-05
3.43737e-05
1.60443e-05
2.87582e-05
2.87621e-05
3.5312e-05
1.65378e-05
2.97863e-05
2.97902e-05
3.62052e-05
1.70731e-05
3.08121e-05
3.08159e-05
3.71025e-05
1.76484e-05
3.18305e-05
3.18344e-05
3.79604e-05
1.82618e-05
3.28376e-05
3.28413e-05
3.88006e-05
1.89105e-05
3.38298e-05
3.3833e-05
3.96284e-05
1.95916e-05
3.4804e-05
3.48062e-05
4.0422e-05
2.0302e-05
3.57571e-05
3.57586e-05
4.11948e-05
3.63062e-05
3.62907e-05
3.62907e-05
3.63062e-05
3.62907e-05
3.62907e-05
3.6423e-05
3.6423e-05
3.6423e-05
3.6423e-05
3.62907e-05
3.62907e-05
3.63062e-05
3.62907e-05
3.62907e-05
3.63062e-05
3.59958e-05
3.42664e-05
3.58914e-05
3.58914e-05
3.43755e-05
3.43754e-05
3.59957e-05
3.42667e-05
3.58914e-05
3.58914e-05
3.43753e-05
3.43754e-05
3.58914e-05
3.43754e-05
3.43754e-05
3.59958e-05
3.42666e-05
3.58914e-05
3.43755e-05
3.43756e-05
3.42669e-05
3.39595e-05
3.22567e-05
3.38874e-05
3.38874e-05
3.24652e-05
3.24651e-05
3.39599e-05
3.22573e-05
3.38872e-05
3.38873e-05
3.24647e-05
3.24647e-05
3.38874e-05
3.24652e-05
3.24648e-05
3.39598e-05
3.2257e-05
3.38876e-05
3.24653e-05
3.24652e-05
3.22568e-05
3.19448e-05
3.02888e-05
3.20042e-05
3.20041e-05
3.06586e-05
3.06586e-05
3.19453e-05
3.02893e-05
3.20036e-05
3.20035e-05
3.06581e-05
3.06578e-05
3.20036e-05
3.06587e-05
3.06578e-05
3.19451e-05
3.02884e-05
3.2004e-05
3.06587e-05
3.06582e-05
3.02883e-05
2.99777e-05
2.84113e-05
3.02227e-05
3.02227e-05
2.89544e-05
2.89546e-05
2.99781e-05
2.8413e-05
3.02222e-05
3.02219e-05
2.8954e-05
2.89538e-05
3.02218e-05
2.89547e-05
2.89535e-05
2.99771e-05
2.84117e-05
3.02223e-05
2.89543e-05
2.89541e-05
2.8412e-05
2.81082e-05
2.6657e-05
2.8545e-05
2.85453e-05
2.7358e-05
2.73586e-05
2.81102e-05
2.66601e-05
2.85445e-05
2.85446e-05
2.73571e-05
2.73579e-05
2.85442e-05
2.73587e-05
2.73573e-05
2.8109e-05
2.66597e-05
2.85449e-05
2.73583e-05
2.73581e-05
2.66596e-05
2.63742e-05
2.50499e-05
2.69762e-05
2.69768e-05
2.58727e-05
2.58733e-05
2.63773e-05
2.50528e-05
2.69752e-05
2.69762e-05
2.58718e-05
2.58725e-05
2.69755e-05
2.58736e-05
2.58721e-05
2.63759e-05
2.50504e-05
2.69764e-05
2.58733e-05
2.5873e-05
2.5051e-05
2.47907e-05
2.35969e-05
2.55187e-05
2.55193e-05
2.4498e-05
2.44984e-05
2.47925e-05
2.35991e-05
2.5518e-05
2.55184e-05
2.44978e-05
2.44973e-05
2.5518e-05
2.4499e-05
2.44972e-05
2.47908e-05
2.35962e-05
2.5519e-05
2.44984e-05
2.44982e-05
2.35973e-05
2.33623e-05
2.2297e-05
2.41718e-05
2.41721e-05
2.3235e-05
2.32351e-05
2.33628e-05
2.22983e-05
2.41717e-05
2.4171e-05
2.32353e-05
2.3234e-05
2.41709e-05
2.3236e-05
2.3234e-05
2.33607e-05
2.22959e-05
2.4172e-05
2.32351e-05
2.32352e-05
2.22967e-05
2.20888e-05
2.11527e-05
2.29368e-05
2.29368e-05
2.20832e-05
2.20831e-05
2.20895e-05
2.11531e-05
2.29371e-05
2.29356e-05
2.20836e-05
2.20819e-05
2.29357e-05
2.20841e-05
2.20819e-05
2.20873e-05
2.11517e-05
2.29369e-05
2.20831e-05
2.20833e-05
2.11515e-05
2.09695e-05
2.01543e-05
2.18123e-05
2.18122e-05
2.104e-05
2.10399e-05
2.09707e-05
2.01547e-05
2.18128e-05
2.18111e-05
2.10405e-05
2.10388e-05
2.1811e-05
2.10409e-05
2.10387e-05
2.09686e-05
2.01535e-05
2.18124e-05
2.104e-05
2.10401e-05
2.0153e-05
1.99964e-05
1.92964e-05
2.07959e-05
2.07958e-05
2.01027e-05
2.01026e-05
1.99974e-05
1.92973e-05
2.07964e-05
2.07947e-05
2.01033e-05
2.01017e-05
2.07946e-05
2.01037e-05
2.01016e-05
1.99957e-05
1.9296e-05
2.0796e-05
2.01028e-05
2.01029e-05
1.92955e-05
1.91638e-05
1.857e-05
1.98845e-05
1.98845e-05
1.92687e-05
1.92687e-05
1.91642e-05
1.85706e-05
1.98852e-05
1.98836e-05
1.92694e-05
1.9268e-05
1.98835e-05
1.92699e-05
1.92679e-05
1.9163e-05
1.85695e-05
1.98848e-05
1.92692e-05
1.9269e-05
1.8569e-05
1.84698e-05
1.79737e-05
1.90764e-05
1.90764e-05
1.85358e-05
1.85359e-05
1.84703e-05
1.79741e-05
1.90771e-05
1.90757e-05
1.85366e-05
1.85354e-05
1.90756e-05
1.85371e-05
1.85353e-05
1.84692e-05
1.79734e-05
1.90767e-05
1.85365e-05
1.85361e-05
1.79727e-05
1.79096e-05
1.75112e-05
1.83681e-05
1.83682e-05
1.79005e-05
1.79005e-05
1.79098e-05
1.75114e-05
1.8369e-05
1.83678e-05
1.79013e-05
1.79002e-05
1.83677e-05
1.79017e-05
1.79002e-05
1.79092e-05
1.75109e-05
1.83684e-05
1.79013e-05
1.79007e-05
1.75103e-05
1.74784e-05
1.71851e-05
1.77567e-05
1.77568e-05
1.73604e-05
1.73605e-05
1.74787e-05
1.71858e-05
1.77576e-05
1.77565e-05
1.73612e-05
1.73603e-05
1.77565e-05
1.73615e-05
1.73603e-05
1.74781e-05
1.71844e-05
1.7757e-05
1.73612e-05
1.73606e-05
1.71852e-05
1.71693e-05
1.69861e-05
1.72405e-05
1.72406e-05
1.69148e-05
1.69149e-05
1.71682e-05
1.69867e-05
1.72413e-05
1.72404e-05
1.69156e-05
1.69147e-05
1.72405e-05
1.69158e-05
1.69148e-05
1.7169e-05
1.69851e-05
1.72407e-05
1.69156e-05
1.6915e-05
1.69855e-05
1.69857e-05
1.69298e-05
1.68186e-05
1.68187e-05
1.65626e-05
1.65627e-05
1.69869e-05
1.69294e-05
1.68194e-05
1.68185e-05
1.65634e-05
1.65625e-05
1.68186e-05
1.65635e-05
1.65626e-05
1.69855e-05
1.69289e-05
1.68188e-05
1.65632e-05
1.65627e-05
1.69292e-05
1.6939e-05
1.69963e-05
1.649e-05
1.64901e-05
1.63037e-05
1.63039e-05
1.69389e-05
1.69953e-05
1.64908e-05
1.64899e-05
1.63045e-05
1.63037e-05
1.649e-05
1.63045e-05
1.63037e-05
1.69383e-05
1.69948e-05
1.64902e-05
1.63042e-05
1.63039e-05
1.69969e-05
1.70326e-05
1.71872e-05
1.62546e-05
1.6255e-05
1.6138e-05
1.61384e-05
1.70332e-05
1.7187e-05
1.62555e-05
1.62547e-05
1.61389e-05
1.61381e-05
1.62549e-05
1.61386e-05
1.61381e-05
1.70326e-05
1.71853e-05
1.6255e-05
1.61384e-05
1.61383e-05
1.71948e-05
1.72591e-05
1.75127e-05
1.61128e-05
1.61133e-05
1.60654e-05
1.60659e-05
1.72587e-05
1.75263e-05
1.61135e-05
1.61129e-05
1.60661e-05
1.60656e-05
1.6113e-05
1.60657e-05
1.60655e-05
1.72584e-05
1.75134e-05
1.61131e-05
1.60657e-05
1.60657e-05
1.75281e-05
1.76099e-05
1.79809e-05
1.60638e-05
1.60643e-05
1.60861e-05
1.60867e-05
1.75996e-05
1.79821e-05
1.60643e-05
1.6064e-05
1.60866e-05
1.60861e-05
1.60639e-05
1.60861e-05
1.60863e-05
1.76108e-05
1.79808e-05
1.6064e-05
1.60861e-05
1.60863e-05
1.79839e-05
1.80783e-05
1.85547e-05
1.61055e-05
1.61063e-05
1.61968e-05
1.61977e-05
1.80752e-05
1.85558e-05
1.61061e-05
1.61056e-05
1.61971e-05
1.6197e-05
1.61058e-05
1.61965e-05
1.61973e-05
1.8075e-05
1.85543e-05
1.61059e-05
1.61967e-05
1.61972e-05
1.85592e-05
1.86674e-05
1.92348e-05
1.62388e-05
1.62397e-05
1.63975e-05
1.63984e-05
1.86669e-05
1.92347e-05
1.62392e-05
1.62391e-05
1.63976e-05
1.63977e-05
1.62395e-05
1.63968e-05
1.63981e-05
1.86678e-05
1.92331e-05
1.62393e-05
1.63971e-05
1.63979e-05
1.92122e-05
1.93644e-05
2.00091e-05
1.64615e-05
1.64625e-05
1.66857e-05
1.66865e-05
1.93688e-05
1.99828e-05
1.64618e-05
1.64619e-05
1.66857e-05
1.6686e-05
1.64624e-05
1.66846e-05
1.66864e-05
1.93648e-05
2.0008e-05
1.64621e-05
1.66852e-05
1.66861e-05
1.99876e-05
2.01555e-05
2.08673e-05
1.67713e-05
1.67722e-05
1.70587e-05
1.70593e-05
2.01746e-05
2.08621e-05
1.67714e-05
1.67716e-05
1.70584e-05
1.70588e-05
1.67722e-05
1.70572e-05
1.70595e-05
2.01556e-05
2.08355e-05
1.6772e-05
1.7058e-05
1.70592e-05
2.08675e-05
2.10278e-05
2.17614e-05
1.71651e-05
1.71658e-05
1.7513e-05
1.75135e-05
2.10258e-05
2.17915e-05
1.71648e-05
1.71654e-05
1.75123e-05
1.75132e-05
1.7166e-05
1.7511e-05
1.75138e-05
2.10474e-05
2.1764e-05
1.71658e-05
1.75122e-05
1.75135e-05
2.1798e-05
2.19889e-05
2.2746e-05
1.76393e-05
1.76398e-05
1.80448e-05
1.80452e-05
2.19645e-05
2.27787e-05
1.76386e-05
1.76397e-05
1.80437e-05
1.8045e-05
1.76401e-05
1.80424e-05
1.80456e-05
2.1991e-05
2.2746e-05
1.76399e-05
1.80437e-05
1.80453e-05
2.27478e-05
2.29877e-05
2.37709e-05
1.81899e-05
1.81904e-05
1.86498e-05
1.86502e-05
2.29596e-05
2.38068e-05
1.81889e-05
1.81903e-05
1.86484e-05
1.86502e-05
1.81907e-05
1.86468e-05
1.86508e-05
2.29869e-05
2.38014e-05
1.81905e-05
1.86484e-05
1.86502e-05
2.37747e-05
2.40244e-05
2.48248e-05
1.88125e-05
1.88129e-05
1.9323e-05
1.93232e-05
2.39948e-05
2.48205e-05
1.88112e-05
1.88129e-05
1.93214e-05
1.93233e-05
1.88136e-05
1.93195e-05
1.93241e-05
2.39996e-05
2.48596e-05
1.8813e-05
1.93211e-05
1.93233e-05
2.48284e-05
2.50882e-05
2.59293e-05
1.95021e-05
1.95021e-05
2.00591e-05
2.0059e-05
2.50838e-05
2.58882e-05
1.95005e-05
1.95024e-05
2.00572e-05
2.00595e-05
1.95032e-05
2.00551e-05
2.00603e-05
2.50527e-05
2.59253e-05
1.95023e-05
2.0057e-05
2.00589e-05
2.58946e-05
2.61314e-05
2.69981e-05
2.0253e-05
2.02528e-05
2.08525e-05
2.08519e-05
2.6161e-05
2.69513e-05
2.02512e-05
2.02535e-05
2.08504e-05
2.08529e-05
2.02543e-05
2.08477e-05
2.08536e-05
2.61432e-05
2.69962e-05
2.02529e-05
2.08501e-05
2.0852e-05
2.69783e-05
2.72058e-05
2.80259e-05
2.10597e-05
2.10592e-05
2.1697e-05
2.16962e-05
2.72332e-05
2.80332e-05
2.10577e-05
2.10603e-05
2.16948e-05
2.16972e-05
2.10609e-05
2.16918e-05
2.16978e-05
2.71979e-05
2.80593e-05
2.10592e-05
2.16945e-05
2.16958e-05
2.80255e-05
2.83101e-05
2.90957e-05
2.19162e-05
2.19152e-05
2.25863e-05
2.25852e-05
2.82761e-05
2.91208e-05
2.19142e-05
2.19162e-05
2.25839e-05
2.25862e-05
2.19171e-05
2.25806e-05
2.2587e-05
2.82767e-05
2.91261e-05
2.19152e-05
2.25835e-05
2.2585e-05
2.90944e-05
2.93545e-05
3.01567e-05
2.28156e-05
2.28145e-05
2.35139e-05
2.35126e-05
2.93254e-05
3.01568e-05
2.28135e-05
2.28155e-05
2.35116e-05
2.35135e-05
2.28164e-05
2.35077e-05
2.35148e-05
2.93284e-05
3.01638e-05
2.28143e-05
2.35107e-05
2.35127e-05
3.01319e-05
3.03995e-05
3.11857e-05
2.37516e-05
2.37505e-05
2.44733e-05
2.44719e-05
3.03636e-05
3.11813e-05
2.37495e-05
2.37514e-05
2.44707e-05
2.4473e-05
2.37529e-05
2.4467e-05
2.44745e-05
3.03829e-05
3.11963e-05
2.37507e-05
2.44702e-05
2.44724e-05
3.11942e-05
3.14252e-05
3.21776e-05
2.47182e-05
2.47169e-05
2.54584e-05
2.5457e-05
3.13946e-05
3.21612e-05
2.47157e-05
2.47179e-05
2.54556e-05
2.54581e-05
2.47196e-05
2.5452e-05
2.54602e-05
3.14096e-05
3.22e-05
2.47174e-05
2.54552e-05
2.54576e-05
3.2183e-05
3.24122e-05
3.31908e-05
2.57089e-05
2.57074e-05
2.64631e-05
2.64618e-05
3.24161e-05
3.31629e-05
2.57062e-05
2.57086e-05
2.646e-05
2.64627e-05
2.57107e-05
2.64567e-05
2.6465e-05
3.24163e-05
3.3168e-05
2.57081e-05
2.64599e-05
2.64625e-05
3.31708e-05
3.33908e-05
3.41402e-05
2.67173e-05
2.67161e-05
2.74809e-05
2.74795e-05
3.34144e-05
3.4116e-05
2.67144e-05
2.6717e-05
2.74777e-05
2.74807e-05
2.67194e-05
2.74747e-05
2.74833e-05
3.33947e-05
3.4121e-05
2.67169e-05
2.74779e-05
2.74808e-05
3.41357e-05
3.43674e-05
3.50766e-05
2.77379e-05
2.77363e-05
2.85069e-05
2.85047e-05
3.43768e-05
3.50573e-05
2.77349e-05
2.77377e-05
2.85038e-05
2.85065e-05
2.77401e-05
2.85003e-05
2.85091e-05
3.43823e-05
3.5068e-05
2.77376e-05
2.85039e-05
2.85065e-05
3.50804e-05
3.53222e-05
3.5994e-05
2.87649e-05
2.87624e-05
2.95345e-05
2.95326e-05
3.5297e-05
3.60138e-05
2.8762e-05
2.87644e-05
2.95315e-05
2.95346e-05
2.87668e-05
2.95283e-05
2.95366e-05
3.53098e-05
3.5981e-05
2.87644e-05
2.95321e-05
2.95342e-05
3.60185e-05
3.62196e-05
3.68924e-05
2.97923e-05
2.97902e-05
3.05607e-05
3.0559e-05
3.621e-05
3.69052e-05
2.97896e-05
2.97924e-05
3.05578e-05
3.0561e-05
2.97942e-05
3.0555e-05
3.0563e-05
3.62227e-05
3.6908e-05
2.97918e-05
3.05588e-05
3.05607e-05
3.69131e-05
3.70991e-05
3.77813e-05
3.08174e-05
3.08157e-05
3.15809e-05
3.15795e-05
3.70873e-05
3.77757e-05
3.08147e-05
3.08178e-05
3.1578e-05
3.15817e-05
3.08196e-05
3.15757e-05
3.15837e-05
3.70961e-05
3.778e-05
3.08171e-05
3.15797e-05
3.15812e-05
3.77846e-05
3.79573e-05
3.86323e-05
3.18356e-05
3.18339e-05
3.25909e-05
3.25899e-05
3.7957e-05
3.86208e-05
3.1833e-05
3.18361e-05
3.25882e-05
3.25919e-05
3.18381e-05
3.25861e-05
3.25941e-05
3.79623e-05
3.86347e-05
3.18356e-05
3.25899e-05
3.25915e-05
3.86289e-05
3.88087e-05
3.94342e-05
3.28423e-05
3.28409e-05
3.35864e-05
3.35857e-05
3.87934e-05
3.94327e-05
3.28398e-05
3.2843e-05
3.35838e-05
3.35876e-05
3.28454e-05
3.35821e-05
3.35905e-05
3.88112e-05
3.94514e-05
3.28427e-05
3.35855e-05
3.35879e-05
3.94549e-05
3.96455e-05
4.02555e-05
3.38339e-05
3.38328e-05
3.45645e-05
3.45645e-05
3.96403e-05
4.0232e-05
3.38316e-05
3.38346e-05
3.45622e-05
3.45657e-05
3.38374e-05
3.45612e-05
3.45693e-05
3.96226e-05
4.02542e-05
3.38349e-05
3.45637e-05
3.45667e-05
4.02555e-05
4.04269e-05
4.10329e-05
3.48071e-05
3.48068e-05
3.55226e-05
3.55229e-05
4.04347e-05
4.10202e-05
3.48051e-05
3.48078e-05
3.55207e-05
3.55234e-05
3.48115e-05
3.55199e-05
3.55277e-05
4.04216e-05
4.10225e-05
3.48089e-05
3.55215e-05
3.55252e-05
4.10321e-05
4.11986e-05
4.17799e-05
3.57599e-05
3.57597e-05
3.64581e-05
3.64588e-05
4.12018e-05
4.17526e-05
3.57583e-05
3.57601e-05
3.64564e-05
3.64587e-05
3.57642e-05
3.64559e-05
3.64632e-05
4.1184e-05
4.17799e-05
3.57617e-05
3.64569e-05
3.64609e-05
4.17823e-05
3.73774e-05
3.73766e-05
3.7377e-05
3.7377e-05
3.73702e-05
3.73777e-05
3.73045e-05
3.73768e-05
3.73702e-05
3.73777e-05
3.73769e-05
3.73043e-05
3.73741e-05
3.72972e-05
3.72963e-05
3.58681e-05
4.06789e-05
3.65955e-05
4.50573e-05
5.57887e-05
6.51588e-05
3.58611e-05
4.0696e-05
3.65936e-05
4.50604e-05
3.58933e-05
3.58933e-05
3.58933e-05
3.44001e-05
3.44001e-05
3.44002e-05
3.44002e-05
3.52712e-05
3.5603e-05
3.58931e-05
3.53766e-05
3.6049e-05
3.41774e-05
3.53821e-05
5.57574e-05
6.51747e-05
3.5271e-05
3.58931e-05
3.56042e-05
3.53766e-05
3.60486e-05
3.53821e-05
3.41804e-05
3.65546e-05
3.65994e-05
3.52786e-05
3.3999e-05
3.40293e-05
3.39453e-05
5.13016e-05
3.46742e-05
5.46168e-05
7.66943e-05
8.09837e-05
3.39421e-05
5.12992e-05
3.46701e-05
5.46138e-05
3.39293e-05
3.39293e-05
3.39293e-05
3.25847e-05
3.25847e-05
3.25847e-05
3.25847e-05
3.30448e-05
3.24305e-05
3.39291e-05
3.34066e-05
3.38914e-05
3.15235e-05
3.34673e-05
7.66913e-05
8.09821e-05
3.30419e-05
3.39291e-05
3.24335e-05
3.34067e-05
3.38892e-05
3.34672e-05
3.15287e-05
3.16432e-05
3.16627e-05
3.32598e-05
3.08226e-05
3.0847e-05
3.22316e-05
5.91655e-05
3.29149e-05
6.14634e-05
8.44331e-05
8.50896e-05
3.22219e-05
5.9165e-05
3.29032e-05
6.14626e-05
3.21569e-05
3.21569e-05
3.21569e-05
3.09266e-05
3.09266e-05
3.09266e-05
3.09265e-05
3.07759e-05
3.04747e-05
3.21364e-05
3.15494e-05
3.16283e-05
2.98509e-05
3.17086e-05
8.44297e-05
8.50875e-05
3.07749e-05
3.21362e-05
3.04792e-05
3.15495e-05
3.16259e-05
3.17084e-05
2.98522e-05
3.01337e-05
3.01631e-05
3.1264e-05
2.99181e-05
2.9942e-05
3.07402e-05
6.43563e-05
3.13354e-05
6.57504e-05
8.46029e-05
8.39161e-05
3.07336e-05
6.4353e-05
3.13295e-05
6.5749e-05
3.05329e-05
3.05328e-05
3.05327e-05
2.93955e-05
2.93956e-05
2.93954e-05
2.93954e-05
2.8583e-05
2.91099e-05
3.04669e-05
2.97935e-05
2.94023e-05
2.86491e-05
3.00659e-05
8.46115e-05
8.39146e-05
2.85841e-05
3.04669e-05
2.91106e-05
2.97933e-05
2.94023e-05
3.00658e-05
2.86411e-05
2.98896e-05
2.99099e-05
2.93361e-05
3.00007e-05
3.00155e-05
2.9502e-05
6.73172e-05
2.99869e-05
6.80441e-05
8.21906e-05
8.12232e-05
2.95015e-05
6.73151e-05
2.99856e-05
6.8044e-05
2.90302e-05
2.90301e-05
2.903e-05
2.7972e-05
2.79723e-05
2.79721e-05
2.7972e-05
2.65462e-05
2.80938e-05
2.88986e-05
2.8143e-05
2.73052e-05
2.77519e-05
2.85212e-05
8.21891e-05
8.12255e-05
2.65495e-05
2.88987e-05
2.80968e-05
2.81426e-05
2.73074e-05
2.85213e-05
2.77484e-05
3.04373e-05
3.04589e-05
2.75191e-05
3.07661e-05
3.07807e-05
2.85848e-05
6.87336e-05
2.89245e-05
6.90311e-05
7.94165e-05
7.85395e-05
2.85872e-05
6.87333e-05
2.89277e-05
6.90313e-05
2.76318e-05
2.76316e-05
2.76315e-05
2.6644e-05
2.66444e-05
2.66442e-05
2.66441e-05
2.47214e-05
2.7385e-05
2.74231e-05
2.66022e-05
2.54036e-05
2.71556e-05
2.70684e-05
7.94139e-05
7.85396e-05
2.47237e-05
2.74235e-05
2.7381e-05
2.66019e-05
2.54061e-05
2.70687e-05
2.71544e-05
3.16047e-05
3.16223e-05
2.58366e-05
3.21141e-05
3.21216e-05
2.80318e-05
6.92379e-05
2.82265e-05
6.92993e-05
7.69935e-05
7.62965e-05
2.80435e-05
6.92402e-05
2.82231e-05
6.93026e-05
2.63263e-05
2.63261e-05
2.63259e-05
2.54029e-05
2.54034e-05
2.54031e-05
2.5403e-05
2.31419e-05
2.69776e-05
2.60378e-05
2.51725e-05
2.37385e-05
2.68924e-05
2.57055e-05
7.69889e-05
7.62925e-05
2.31424e-05
2.60381e-05
2.69748e-05
2.51721e-05
2.37389e-05
2.57056e-05
2.68879e-05
3.32647e-05
3.3276e-05
2.43052e-05
3.39099e-05
3.39107e-05
2.7898e-05
6.92814e-05
2.79095e-05
6.92579e-05
7.50713e-05
7.4541e-05
2.79011e-05
6.92851e-05
2.79119e-05
6.92616e-05
2.51059e-05
2.51056e-05
2.51055e-05
2.42428e-05
2.4243e-05
2.42426e-05
2.42426e-05
2.18271e-05
2.69152e-05
2.47415e-05
2.38535e-05
2.23302e-05
2.69624e-05
2.44312e-05
7.50665e-05
7.45353e-05
2.18269e-05
2.47415e-05
2.69106e-05
2.38527e-05
2.23297e-05
2.4431e-05
2.69525e-05
3.52816e-05
3.52888e-05
2.29274e-05
3.60149e-05
3.60134e-05
2.81557e-05
6.91759e-05
2.80227e-05
6.91484e-05
7.36119e-05
7.32196e-05
2.81577e-05
6.91796e-05
2.80225e-05
6.91521e-05
2.3965e-05
2.39646e-05
2.39646e-05
2.31587e-05
2.31588e-05
2.31583e-05
2.31584e-05
2.07867e-05
2.71801e-05
2.3533e-05
2.26463e-05
2.11877e-05
2.73456e-05
2.32441e-05
7.36114e-05
7.32162e-05
2.07866e-05
2.35327e-05
2.71877e-05
2.26453e-05
2.11872e-05
2.32437e-05
2.73298e-05
3.75358e-05
3.75415e-05
2.17049e-05
3.83234e-05
3.83227e-05
2.88339e-05
6.90965e-05
2.8554e-05
6.9087e-05
7.25361e-05
7.22498e-05
2.88281e-05
6.91005e-05
2.85529e-05
6.90916e-05
2.28993e-05
2.28987e-05
2.28988e-05
2.21469e-05
2.2147e-05
2.21464e-05
2.21465e-05
2.00169e-05
2.77685e-05
2.24085e-05
2.1549e-05
2.03086e-05
2.80367e-05
2.21404e-05
7.25353e-05
7.22527e-05
2.00165e-05
2.24081e-05
2.77737e-05
2.15481e-05
2.03088e-05
2.21399e-05
2.80233e-05
3.99219e-05
3.99298e-05
2.06344e-05
4.07279e-05
4.07335e-05
2.99119e-05
6.90861e-05
2.95007e-05
6.91037e-05
7.17611e-05
7.15631e-05
2.9907e-05
6.9091e-05
2.94935e-05
6.91089e-05
2.1905e-05
2.19044e-05
2.19045e-05
2.1204e-05
2.12041e-05
2.12035e-05
2.12035e-05
1.95112e-05
2.864e-05
2.13677e-05
2.05592e-05
1.96932e-05
2.90013e-05
2.11206e-05
7.1757e-05
7.15617e-05
1.9511e-05
2.13674e-05
2.86494e-05
2.05583e-05
1.96933e-05
2.11202e-05
2.89841e-05
4.23497e-05
4.23528e-05
1.97071e-05
4.31484e-05
4.31513e-05
3.13938e-05
6.9137e-05
3.08479e-05
6.91813e-05
7.12102e-05
7.10776e-05
3.13934e-05
6.91428e-05
3.08494e-05
6.91872e-05
2.09789e-05
2.09783e-05
2.09784e-05
2.0326e-05
2.0326e-05
2.03255e-05
2.03255e-05
1.92673e-05
2.97695e-05
2.04102e-05
1.96739e-05
1.93389e-05
3.01986e-05
2.01834e-05
7.12091e-05
7.1077e-05
1.92664e-05
2.04099e-05
2.97767e-05
1.96731e-05
1.93385e-05
2.0183e-05
3.01862e-05
4.47279e-05
4.47301e-05
1.89161e-05
4.54918e-05
4.54949e-05
3.32536e-05
6.92369e-05
3.2586e-05
6.92895e-05
7.08275e-05
7.07391e-05
3.32583e-05
6.9243e-05
3.25881e-05
6.92957e-05
2.0116e-05
2.01155e-05
2.01155e-05
1.95093e-05
1.95094e-05
1.95089e-05
1.95089e-05
1.92849e-05
3.11039e-05
1.95329e-05
1.88912e-05
1.92539e-05
3.15913e-05
1.93257e-05
7.08267e-05
7.07388e-05
1.92774e-05
1.95326e-05
3.11183e-05
1.88905e-05
1.92535e-05
1.93253e-05
3.15849e-05
4.69839e-05
4.69876e-05
1.82545e-05
4.76988e-05
4.77014e-05
3.54323e-05
6.93521e-05
3.46717e-05
6.94041e-05
7.05584e-05
7.05002e-05
3.54387e-05
6.93582e-05
3.46745e-05
6.94107e-05
1.93151e-05
1.93146e-05
1.93146e-05
1.87543e-05
1.87545e-05
1.8754e-05
1.8754e-05
1.95551e-05
3.2612e-05
1.87328e-05
1.82075e-05
1.94318e-05
3.31472e-05
1.85445e-05
7.05575e-05
7.04998e-05
1.95442e-05
1.87324e-05
3.26217e-05
1.8207e-05
1.94362e-05
1.85441e-05
3.31359e-05
4.90721e-05
4.90778e-05
1.77245e-05
4.97204e-05
4.97276e-05
3.7866e-05
6.94641e-05
3.70309e-05
6.95124e-05
7.03637e-05
7.03229e-05
3.78649e-05
6.94706e-05
3.70373e-05
6.95187e-05
1.85752e-05
1.85748e-05
1.85747e-05
1.80584e-05
1.80585e-05
1.80582e-05
1.80581e-05
2.00758e-05
3.4233e-05
1.80073e-05
1.76198e-05
1.98695e-05
3.47928e-05
1.78373e-05
7.03626e-05
7.03218e-05
2.00661e-05
1.80069e-05
3.42423e-05
1.76194e-05
1.98744e-05
1.78368e-05
3.47882e-05
5.09591e-05
5.09671e-05
1.73312e-05
5.1538e-05
5.15474e-05
4.04393e-05
6.95669e-05
3.95695e-05
6.96103e-05
7.02166e-05
7.01819e-05
4.04502e-05
6.95732e-05
3.9571e-05
6.96171e-05
1.78937e-05
1.78934e-05
1.78933e-05
1.74191e-05
1.74193e-05
1.7419e-05
1.74189e-05
2.08405e-05
3.59188e-05
1.7354e-05
1.71269e-05
2.0556e-05
3.64903e-05
1.72018e-05
7.02161e-05
7.01806e-05
2.08384e-05
1.73535e-05
3.5928e-05
1.71266e-05
2.05606e-05
1.72013e-05
3.64848e-05
5.26357e-05
5.26437e-05
1.70695e-05
5.31459e-05
5.31554e-05
4.30571e-05
6.96596e-05
4.21703e-05
6.96998e-05
7.00956e-05
7.00645e-05
4.30751e-05
6.96662e-05
4.21586e-05
6.97062e-05
1.72683e-05
1.7268e-05
1.72679e-05
1.68344e-05
1.68346e-05
1.68343e-05
1.68342e-05
2.18497e-05
3.76225e-05
1.67721e-05
1.6728e-05
2.14866e-05
3.8184e-05
1.66375e-05
7.0095e-05
7.00634e-05
2.18417e-05
1.67717e-05
3.76296e-05
1.67277e-05
2.14881e-05
1.6637e-05
3.81805e-05
5.41066e-05
5.41156e-05
1.69401e-05
5.45504e-05
5.45616e-05
4.55967e-05
6.97453e-05
4.47227e-05
6.9781e-05
6.99889e-05
6.99604e-05
4.56134e-05
6.97521e-05
4.47144e-05
6.97869e-05
1.66969e-05
1.66967e-05
1.66966e-05
1.63026e-05
1.63028e-05
1.63025e-05
1.63024e-05
2.30659e-05
3.92991e-05
1.62594e-05
1.64223e-05
2.26359e-05
3.98495e-05
1.61417e-05
6.99881e-05
6.99599e-05
2.30608e-05
1.6259e-05
3.93039e-05
1.6422e-05
2.26399e-05
1.61413e-05
3.98412e-05
5.53873e-05
5.53979e-05
1.69467e-05
5.57725e-05
5.57853e-05
4.7959e-05
6.98276e-05
4.71384e-05
6.98592e-05
6.98911e-05
6.98652e-05
4.79735e-05
6.98343e-05
4.7133e-05
6.98654e-05
1.61782e-05
1.6178e-05
1.61779e-05
1.58218e-05
1.5822e-05
1.58218e-05
1.58217e-05
2.44704e-05
4.09167e-05
1.58145e-05
1.62099e-05
2.39834e-05
4.14295e-05
1.57136e-05
6.98908e-05
6.98649e-05
2.44601e-05
1.58141e-05
4.09197e-05
1.62097e-05
2.39845e-05
1.57132e-05
4.1432e-05
5.65e-05
5.65105e-05
1.70802e-05
5.68349e-05
5.68477e-05
5.00823e-05
6.99034e-05
4.93408e-05
6.9933e-05
6.98005e-05
6.97766e-05
5.00939e-05
6.99102e-05
4.93365e-05
6.99393e-05
1.57097e-05
1.57095e-05
1.57095e-05
1.53901e-05
1.53902e-05
1.539e-05
1.539e-05
2.60132e-05
4.24458e-05
1.54369e-05
1.60906e-05
2.54849e-05
4.29308e-05
1.53528e-05
6.98002e-05
6.97764e-05
2.60111e-05
1.54365e-05
4.24476e-05
1.60905e-05
2.54876e-05
1.53524e-05
4.29356e-05
5.74683e-05
5.7479e-05
1.73422e-05
5.77601e-05
5.77726e-05
5.19329e-05
6.99743e-05
5.12849e-05
7.00013e-05
6.97157e-05
6.96936e-05
5.19428e-05
6.99809e-05
5.12813e-05
7.00082e-05
1.529e-05
1.52897e-05
1.52897e-05
1.50063e-05
1.50064e-05
1.50062e-05
1.50062e-05
2.76596e-05
4.38773e-05
1.51265e-05
1.60664e-05
2.71006e-05
4.43291e-05
1.5059e-05
6.97155e-05
6.96936e-05
2.76544e-05
1.51261e-05
4.38828e-05
1.60664e-05
2.71039e-05
1.50586e-05
4.43299e-05
5.83135e-05
5.83241e-05
1.77388e-05
5.85689e-05
5.85812e-05
5.35102e-05
7.00395e-05
5.29559e-05
7.0064e-05
6.96367e-05
6.96166e-05
5.35192e-05
7.00461e-05
5.29537e-05
7.00707e-05
1.49181e-05
1.49178e-05
1.49179e-05
1.46696e-05
1.46697e-05
1.46695e-05
1.46696e-05
2.93516e-05
4.5204e-05
1.48832e-05
1.61301e-05
2.8787e-05
4.56182e-05
1.48324e-05
6.96365e-05
6.96165e-05
2.93495e-05
1.48829e-05
4.52076e-05
1.61301e-05
2.87889e-05
1.4832e-05
4.56245e-05
5.90552e-05
5.9066e-05
1.82539e-05
5.92805e-05
5.92925e-05
5.48341e-05
7.00982e-05
5.43654e-05
7.01201e-05
6.95637e-05
6.95454e-05
5.48423e-05
7.01045e-05
5.43647e-05
7.01264e-05
1.4593e-05
1.45928e-05
1.45929e-05
1.43793e-05
1.43795e-05
1.43793e-05
1.43794e-05
3.1054e-05
4.64293e-05
1.47077e-05
1.62855e-05
3.04906e-05
4.6806e-05
1.46737e-05
6.95633e-05
6.95451e-05
3.10566e-05
1.47074e-05
4.64251e-05
1.62858e-05
3.04941e-05
1.46734e-05
4.68061e-05
5.97111e-05
5.97215e-05
1.88844e-05
5.99111e-05
5.99212e-05
5.59357e-05
7.01483e-05
5.55417e-05
7.0171e-05
6.94965e-05
6.94801e-05
5.59442e-05
7.0154e-05
5.55418e-05
7.01774e-05
1.43142e-05
1.4314e-05
1.43142e-05
1.41351e-05
1.41352e-05
1.4135e-05
1.41353e-05
3.27274e-05
4.75456e-05
1.46008e-05
1.65299e-05
3.2178e-05
4.78899e-05
1.45838e-05
6.94958e-05
6.94795e-05
3.27258e-05
1.46006e-05
4.75451e-05
1.65302e-05
3.21779e-05
1.45836e-05
4.78946e-05
6.02927e-05
6.03037e-05
1.95879e-05
6.04718e-05
6.04824e-05
5.68527e-05
7.01949e-05
5.65197e-05
7.02125e-05
6.94351e-05
6.94205e-05
5.68616e-05
7.01993e-05
5.65208e-05
7.02199e-05
1.40813e-05
1.40811e-05
1.40814e-05
1.39363e-05
1.39364e-05
1.39362e-05
1.39366e-05
3.43321e-05
4.85686e-05
1.45631e-05
1.68606e-05
3.38113e-05
4.88821e-05
1.45648e-05
6.94341e-05
6.94198e-05
3.43345e-05
1.45632e-05
4.85664e-05
1.68612e-05
3.38127e-05
1.4565e-05
4.88868e-05
6.0814e-05
6.08253e-05
2.04093e-05
6.0974e-05
6.09858e-05
5.76224e-05
7.02326e-05
5.73369e-05
7.02497e-05
6.93794e-05
6.93668e-05
5.76307e-05
7.02386e-05
5.73386e-05
7.0256e-05
1.38937e-05
1.38936e-05
1.3894e-05
1.37827e-05
1.37828e-05
1.37827e-05
1.37831e-05
3.58564e-05
4.95028e-05
1.45939e-05
1.72742e-05
3.53648e-05
4.97921e-05
1.46117e-05
6.93782e-05
6.9366e-05
3.58564e-05
1.45942e-05
4.95009e-05
1.72751e-05
3.53662e-05
1.46121e-05
4.97943e-05
6.12828e-05
6.12941e-05
2.13207e-05
6.14276e-05
6.14392e-05
5.82766e-05
7.02667e-05
5.80275e-05
7.02818e-05
6.93293e-05
6.93186e-05
5.82838e-05
7.02739e-05
5.80298e-05
7.02881e-05
1.37513e-05
1.37513e-05
1.37517e-05
1.36741e-05
1.36742e-05
1.36742e-05
1.36747e-05
3.72869e-05
5.03587e-05
1.46936e-05
1.77672e-05
3.68279e-05
5.06244e-05
1.47284e-05
6.93279e-05
6.93176e-05
3.72877e-05
1.46941e-05
5.03599e-05
1.77685e-05
3.6827e-05
1.47291e-05
5.06255e-05
6.17068e-05
6.17182e-05
2.22428e-05
6.18386e-05
6.185e-05
5.88406e-05
7.02982e-05
5.86201e-05
7.03108e-05
6.92846e-05
6.92759e-05
5.88465e-05
7.03043e-05
5.86232e-05
7.03181e-05
1.36538e-05
1.36539e-05
1.36545e-05
1.36106e-05
1.36106e-05
1.36107e-05
1.36113e-05
3.86131e-05
5.11462e-05
1.48615e-05
1.83357e-05
3.81883e-05
5.13897e-05
1.49132e-05
6.92831e-05
6.92747e-05
3.86168e-05
1.48622e-05
5.11486e-05
1.83372e-05
3.819e-05
1.49141e-05
5.13951e-05
6.2094e-05
6.21052e-05
2.3256e-05
6.22149e-05
6.22264e-05
5.93342e-05
7.03271e-05
5.91375e-05
7.03388e-05
6.92454e-05
6.92387e-05
5.93392e-05
7.03334e-05
5.91415e-05
7.03464e-05
1.36014e-05
1.36016e-05
1.36022e-05
1.35927e-05
1.35926e-05
1.35929e-05
1.35935e-05
3.98439e-05
5.18712e-05
1.5097e-05
1.8975e-05
3.94502e-05
5.20985e-05
1.51653e-05
6.92438e-05
6.92374e-05
3.98464e-05
1.50979e-05
5.18754e-05
1.89765e-05
3.94508e-05
1.51664e-05
5.21023e-05
6.24501e-05
6.24609e-05
2.42965e-05
6.25615e-05
6.25727e-05
5.97748e-05
7.0355e-05
5.95972e-05
7.03668e-05
6.92119e-05
6.92072e-05
5.97788e-05
7.03612e-05
5.96011e-05
7.03749e-05
1.35947e-05
1.35951e-05
1.35957e-05
1.36183e-05
1.36182e-05
1.36187e-05
1.36193e-05
4.0982e-05
5.25436e-05
1.53989e-05
1.96798e-05
4.0617e-05
5.27542e-05
1.54833e-05
6.92101e-05
6.92058e-05
4.09837e-05
1.54001e-05
5.25465e-05
1.96815e-05
4.06186e-05
1.5485e-05
5.2758e-05
6.27799e-05
6.27904e-05
2.53599e-05
6.28841e-05
6.28951e-05
6.01725e-05
7.03835e-05
6.00118e-05
7.03956e-05
6.91841e-05
6.91816e-05
6.01764e-05
7.03897e-05
6.00152e-05
7.04037e-05
1.36327e-05
1.36333e-05
1.36339e-05
1.36906e-05
1.36903e-05
1.36911e-05
1.36917e-05
4.20394e-05
5.31696e-05
1.57657e-05
2.04447e-05
4.16922e-05
5.33661e-05
1.58661e-05
6.91823e-05
6.91801e-05
4.20414e-05
1.57673e-05
5.31718e-05
2.04468e-05
4.16934e-05
1.5868e-05
5.33706e-05
6.30879e-05
6.30987e-05
2.64286e-05
6.31862e-05
6.3197e-05
6.0537e-05
7.04132e-05
6.03893e-05
7.04264e-05
6.91623e-05
6.9162e-05
6.05411e-05
7.04194e-05
6.03924e-05
7.04346e-05
1.37164e-05
1.37172e-05
1.37177e-05
1.38087e-05
1.38082e-05
1.38092e-05
1.38097e-05
4.3021e-05
5.3755e-05
1.61958e-05
2.12638e-05
4.26897e-05
5.39406e-05
1.63116e-05
6.91604e-05
6.91603e-05
4.30224e-05
1.61977e-05
5.3759e-05
2.12662e-05
4.26911e-05
1.63138e-05
5.39449e-05
6.33787e-05
6.33895e-05
2.75197e-05
6.34717e-05
6.34829e-05
6.08744e-05
7.0444e-05
6.07367e-05
7.04605e-05
6.91466e-05
6.91484e-05
6.08781e-05
7.04512e-05
6.07401e-05
7.04681e-05
1.38459e-05
1.38469e-05
1.38474e-05
1.39728e-05
1.39721e-05
1.39733e-05
1.39739e-05
4.39361e-05
5.43061e-05
1.66871e-05
2.21309e-05
4.36186e-05
5.44814e-05
1.68177e-05
6.91444e-05
6.91465e-05
4.39369e-05
1.66889e-05
5.43103e-05