/*--------------------------------*- C++ -*----------------------------------*\
| =========                 |                                                 |
| \\      /  F ield         | OpenFOAM: The Open Source CFD Toolbox           |
|  \\    /   O peration     | Version:  v2012                                 |
|   \\  /    A nd           | Website:  www.openfoam.com                      |
|    \\/     M anipulation  |                                                 |
\*---------------------------------------------------------------------------*/
FoamFile
{
    version     2.0;
    format      ascii;
    class       volScalarField;
    location    "300";
    object      p;
}
// * * * * * * * * * * * * * * * * * * * * * * * * * * * * * * * * * * * * * //

dimensions      [0 2 -2 0 0 0 0];


internalField   nonuniform List<scalar> 
85864
(
0.00359413
0.00359396
0.00359396
0.00359676
0.00354059
0.00354072
0.00354072
0.00354293
0.0034893
0.00348934
0.00348934
0.00349165
0.0034374
0.00343736
0.00343736
0.00343964
0.00338632
0.00338627
0.00338627
0.00338851
0.00333662
0.00333657
0.00333657
0.00333877
0.00328834
0.00328831
0.00328831
0.00329047
0.00324136
0.00324134
0.00324134
0.00324346
0.00319547
0.00319546
0.00319547
0.00319756
0.00315047
0.00315047
0.00315047
0.00315254
0.0031062
0.0031062
0.0031062
0.00310825
0.00306252
0.00306253
0.00306253
0.00306455
0.00301935
0.00301936
0.00301936
0.00302136
0.00297665
0.00297666
0.00297666
0.00297864
0.00293438
0.00293438
0.00293438
0.00293635
0.00289251
0.00289251
0.00289251
0.00289446
0.00285102
0.00285103
0.00285103
0.00285296
0.00280988
0.00280989
0.00280989
0.00281181
0.00276908
0.00276909
0.00276909
0.00277099
0.00272859
0.0027286
0.0027286
0.00273049
0.00268839
0.00268839
0.00268839
0.00269027
0.00264846
0.00264846
0.00264846
0.00265032
0.00260877
0.00260877
0.00260877
0.00261063
0.00256932
0.00256932
0.00256932
0.00257116
0.0025301
0.0025301
0.0025301
0.00253193
0.0024911
0.00249109
0.00249109
0.00249291
0.0024523
0.00245229
0.00245229
0.00245409
0.0024137
0.00241368
0.00241368
0.00241547
0.00237529
0.00237527
0.00237527
0.00237704
0.00233706
0.00233704
0.00233704
0.0023388
0.00229902
0.002299
0.002299
0.00230073
0.00226114
0.00226112
0.00226112
0.00226284
0.00222344
0.00222341
0.00222341
0.00222512
0.0021859
0.00218587
0.00218587
0.00218756
0.00214851
0.00214848
0.00214848
0.00215015
0.00211127
0.00211124
0.00211124
0.0021129
0.00207418
0.00207415
0.00207415
0.00207579
0.00203723
0.00203719
0.00203719
0.00203882
0.00200041
0.00200037
0.00200037
0.00200199
0.00196372
0.00196367
0.00196367
0.00196528
0.00192714
0.00192709
0.00192709
0.0019287
0.00189069
0.00189063
0.00189063
0.00189223
0.00185434
0.00185428
0.00185428
0.00185587
0.0018181
0.00181803
0.00181803
0.00181962
0.00178195
0.00178188
0.00178188
0.00178347
0.00174589
0.00174582
0.00174582
0.0017474
0.00170992
0.00170985
0.00170985
0.00171142
0.00360753
0.00360772
0.00360771
0.00360751
0.00360772
0.00360772
0.00360845
0.00360845
0.00360845
0.00360845
0.00360771
0.00360772
0.00360752
0.00360772
0.00360772
0.00360753
0.00359676
0.0035506
0.00359396
0.00359395
0.0035531
0.0035531
0.00359676
0.0035506
0.00359396
0.00359396
0.0035531
0.0035531
0.00359396
0.0035531
0.0035531
0.00359676
0.0035506
0.00359396
0.0035531
0.0035531
0.0035506
0.00354293
0.00349968
0.00354072
0.00354072
0.00350234
0.00350234
0.00354293
0.00349968
0.00354072
0.00354072
0.00350234
0.00350234
0.00354072
0.00350234
0.00350234
0.00354292
0.00349968
0.00354072
0.00350234
0.00350234
0.00349968
0.00349165
0.00344763
0.00348934
0.00348934
0.00345031
0.00345031
0.00349164
0.00344763
0.00348934
0.00348934
0.00345031
0.00345031
0.00348934
0.00345031
0.00345031
0.00349164
0.00344763
0.00348934
0.00345031
0.00345031
0.00344763
0.00343964
0.00339631
0.00343736
0.00343736
0.00339892
0.00339892
0.00343964
0.00339631
0.00343736
0.00343737
0.00339892
0.00339892
0.00343736
0.00339892
0.00339892
0.00343964
0.00339631
0.00343736
0.00339892
0.00339892
0.00339631
0.00338851
0.00334635
0.00338627
0.00338627
0.00334886
0.00334886
0.00338851
0.00334635
0.00338627
0.00338627
0.00334886
0.00334886
0.00338627
0.00334886
0.00334886
0.00338851
0.00334635
0.00338627
0.00334886
0.00334886
0.00334635
0.00333877
0.00329783
0.00333657
0.00333657
0.00330025
0.00330025
0.00333877
0.00329783
0.00333657
0.00333657
0.00330025
0.00330025
0.00333657
0.00330025
0.00330025
0.00333877
0.00329783
0.00333657
0.00330025
0.00330025
0.00329783
0.00329047
0.00325065
0.00328831
0.00328831
0.00325297
0.00325297
0.00329047
0.00325064
0.00328831
0.00328831
0.00325297
0.00325297
0.00328831
0.00325297
0.00325297
0.00329047
0.00325065
0.00328831
0.00325297
0.00325297
0.00325064
0.00324347
0.00320458
0.00324134
0.00324134
0.00320684
0.00320684
0.00324346
0.00320458
0.00324134
0.00324134
0.00320684
0.00320684
0.00324134
0.00320684
0.00320684
0.00324347
0.00320459
0.00324134
0.00320684
0.00320684
0.00320458
0.00319756
0.00315945
0.00319546
0.00319546
0.00316165
0.00316165
0.00319756
0.00315945
0.00319546
0.00319546
0.00316165
0.00316165
0.00319546
0.00316165
0.00316165
0.00319756
0.00315945
0.00319546
0.00316165
0.00316165
0.00315945
0.00315254
0.00311506
0.00315047
0.00315047
0.00311721
0.00311721
0.00315254
0.00311506
0.00315047
0.00315047
0.00311721
0.00311721
0.00315047
0.00311721
0.00311721
0.00315254
0.00311506
0.00315047
0.00311721
0.00311721
0.00311506
0.00310825
0.00307128
0.0031062
0.0031062
0.00307339
0.0030734
0.00310825
0.00307128
0.0031062
0.0031062
0.0030734
0.00307339
0.0031062
0.0030734
0.0030734
0.00310825
0.00307128
0.0031062
0.0030734
0.0030734
0.00307127
0.00306455
0.00302801
0.00306253
0.00306253
0.00303011
0.00303011
0.00306455
0.00302801
0.00306253
0.00306253
0.00303011
0.00303011
0.00306253
0.00303011
0.00303011
0.00306455
0.00302801
0.00306253
0.00303011
0.00303011
0.00302801
0.00302136
0.00298522
0.00301936
0.00301936
0.00298729
0.00298729
0.00302136
0.00298522
0.00301936
0.00301936
0.00298729
0.00298729
0.00301936
0.00298729
0.00298729
0.00302136
0.00298522
0.00301936
0.00298729
0.00298729
0.00298522
0.00297863
0.00294289
0.00297666
0.00297666
0.00294491
0.00294491
0.00297864
0.00294289
0.00297666
0.00297666
0.00294491
0.00294491
0.00297666
0.00294491
0.00294491
0.00297863
0.00294288
0.00297666
0.00294491
0.00294491
0.00294289
0.00293635
0.00290096
0.00293438
0.00293438
0.00290295
0.00290295
0.00293635
0.00290096
0.00293438
0.00293438
0.00290295
0.00290295
0.00293438
0.00290295
0.00290295
0.00293635
0.00290096
0.00293438
0.00290295
0.00290295
0.00290096
0.00289446
0.00285941
0.00289251
0.00289251
0.00286136
0.00286136
0.00289446
0.00285941
0.00289251
0.00289251
0.00286136
0.00286136
0.00289251
0.00286136
0.00286136
0.00289446
0.00285941
0.00289252
0.00286136
0.00286136
0.00285941
0.00285296
0.00281823
0.00285103
0.00285103
0.00282014
0.00282014
0.00285296
0.00281823
0.00285103
0.00285103
0.00282014
0.00282014
0.00285103
0.00282014
0.00282014
0.00285296
0.00281823
0.00285103
0.00282014
0.00282014
0.00281823
0.00281181
0.00277738
0.00280989
0.00280989
0.00277926
0.00277926
0.00281181
0.00277738
0.00280989
0.00280989
0.00277926
0.00277926
0.00280989
0.00277926
0.00277926
0.00281181
0.00277738
0.00280989
0.00277926
0.00277926
0.00277738
0.00277099
0.00273684
0.00276909
0.00276909
0.00273869
0.00273869
0.00277099
0.00273684
0.00276909
0.00276909
0.00273869
0.00273869
0.00276909
0.00273869
0.00273869
0.00277099
0.00273684
0.00276909
0.00273869
0.00273869
0.00273684
0.00273049
0.00269659
0.0027286
0.0027286
0.00269842
0.00269842
0.00273049
0.00269659
0.0027286
0.0027286
0.00269842
0.00269842
0.0027286
0.00269842
0.00269842
0.00273049
0.00269659
0.0027286
0.00269842
0.00269842
0.00269659
0.00269027
0.00265661
0.00268839
0.00268839
0.00265842
0.00265842
0.00269027
0.00265661
0.00268839
0.00268839
0.00265842
0.00265842
0.00268839
0.00265842
0.00265842
0.00269027
0.00265661
0.00268839
0.00265842
0.00265842
0.00265661
0.00265032
0.00261689
0.00264846
0.00264846
0.00261867
0.00261867
0.00265032
0.00261689
0.00264846
0.00264846
0.00261867
0.00261867
0.00264846
0.00261867
0.00261867
0.00265032
0.00261689
0.00264846
0.00261867
0.00261867
0.00261689
0.00261063
0.0025774
0.00260877
0.00260877
0.00257916
0.00257916
0.00261063
0.0025774
0.00260877
0.00260877
0.00257916
0.00257916
0.00260877
0.00257916
0.00257916
0.00261063
0.0025774
0.00260877
0.00257916
0.00257916
0.0025774
0.00257116
0.00253814
0.00256932
0.00256932
0.00253988
0.00253988
0.00257116
0.00253814
0.00256932
0.00256932
0.00253988
0.00253988
0.00256932
0.00253988
0.00253988
0.00257117
0.00253814
0.00256932
0.00253988
0.00253988
0.00253814
0.00253193
0.00249909
0.0025301
0.0025301
0.00250082
0.00250082
0.00253193
0.00249909
0.0025301
0.0025301
0.00250082
0.00250082
0.0025301
0.00250082
0.00250082
0.00253193
0.00249909
0.0025301
0.00250082
0.00250082
0.00249909
0.00249291
0.00246025
0.00249109
0.00249109
0.00246197
0.00246197
0.00249291
0.00246025
0.00249109
0.00249109
0.00246197
0.00246197
0.00249109
0.00246197
0.00246197
0.00249291
0.00246025
0.00249109
0.00246197
0.00246197
0.00246025
0.00245409
0.0024216
0.00245229
0.00245229
0.00242331
0.00242331
0.00245409
0.0024216
0.00245229
0.00245229
0.00242331
0.00242331
0.00245229
0.00242331
0.00242331
0.00245409
0.0024216
0.00245229
0.00242331
0.00242331
0.0024216
0.00241547
0.00238315
0.00241368
0.00241368
0.00238485
0.00238485
0.00241547
0.00238315
0.00241368
0.00241368
0.00238485
0.00238485
0.00241368
0.00238485
0.00238485
0.00241547
0.00238315
0.00241368
0.00238485
0.00238485
0.00238315
0.00237704
0.00234488
0.00237527
0.00237527
0.00234658
0.00234658
0.00237704
0.00234488
0.00237527
0.00237527
0.00234658
0.00234658
0.00237527
0.00234658
0.00234658
0.00237704
0.00234488
0.00237527
0.00234658
0.00234658
0.00234488
0.0023388
0.00230679
0.00233704
0.00233704
0.00230849
0.00230849
0.0023388
0.0023068
0.00233704
0.00233704
0.00230849
0.00230849
0.00233704
0.00230849
0.00230849
0.0023388
0.00230679
0.00233704
0.00230849
0.00230849
0.00230679
0.00230073
0.00226888
0.002299
0.00229899
0.00227057
0.00227057
0.00230073
0.00226888
0.002299
0.002299
0.00227057
0.00227057
0.00229899
0.00227057
0.00227057
0.00230073
0.00226888
0.00229899
0.00227057
0.00227057
0.00226888
0.00226284
0.00223113
0.00226112
0.00226112
0.00223283
0.00223282
0.00226284
0.00223113
0.00226112
0.00226112
0.00223283
0.00223283
0.00226112
0.00223283
0.00223283
0.00226284
0.00223113
0.00226112
0.00223283
0.00223283
0.00223113
0.00222512
0.00219355
0.00222341
0.00222341
0.00219524
0.00219524
0.00222512
0.00219355
0.00222341
0.00222341
0.00219524
0.00219524
0.00222341
0.00219524
0.00219524
0.00222512
0.00219355
0.00222341
0.00219524
0.00219524
0.00219355
0.00218756
0.00215613
0.00218587
0.00218587
0.00215781
0.00215781
0.00218756
0.00215613
0.00218587
0.00218587
0.00215781
0.00215781
0.00218587
0.00215781
0.00215781
0.00218756
0.00215612
0.00218587
0.00215781
0.00215781
0.00215612
0.00215015
0.00211885
0.00214848
0.00214848
0.00212054
0.00212054
0.00215015
0.00211885
0.00214848
0.00214848
0.00212054
0.00212054
0.00214848
0.00212054
0.00212054
0.00215015
0.00211885
0.00214848
0.00212054
0.00212054
0.00211885
0.0021129
0.00208172
0.00211124
0.00211124
0.00208341
0.00208341
0.0021129
0.00208172
0.00211124
0.00211124
0.00208341
0.00208341
0.00211124
0.00208341
0.00208341
0.0021129
0.00208172
0.00211124
0.00208341
0.00208341
0.00208172
0.00207579
0.00204473
0.00207415
0.00207415
0.00204642
0.00204642
0.00207579
0.00204473
0.00207415
0.00207415
0.00204642
0.00204642
0.00207415
0.00204642
0.00204642
0.00207579
0.00204473
0.00207415
0.00204642
0.00204642
0.00204473
0.00203882
0.00200788
0.00203719
0.00203719
0.00200956
0.00200956
0.00203882
0.00200788
0.00203719
0.00203719
0.00200956
0.00200956
0.00203719
0.00200956
0.00200956
0.00203882
0.00200788
0.00203719
0.00200956
0.00200956
0.00200788
0.00200199
0.00197115
0.00200037
0.00200036
0.00197283
0.00197283
0.00200199
0.00197115
0.00200037
0.00200037
0.00197283
0.00197283
0.00200037
0.00197283
0.00197283
0.00200199
0.00197115
0.00200037
0.00197283
0.00197283
0.00197115
0.00196528
0.00193455
0.00196367
0.00196367
0.00193623
0.00193622
0.00196528
0.00193455
0.00196367
0.00196367
0.00193622
0.00193622
0.00196367
0.00193622
0.00193622
0.00196528
0.00193455
0.00196367
0.00193622
0.00193622
0.00193455
0.0019287
0.00189807
0.00192709
0.00192709
0.00189974
0.00189974
0.0019287
0.00189807
0.00192709
0.00192709
0.00189974
0.00189974
0.00192709
0.00189974
0.00189974
0.0019287
0.00189807
0.00192709
0.00189974
0.00189974
0.00189807
0.00189223
0.00186169
0.00189063
0.00189063
0.00186336
0.00186336
0.00189223
0.00186169
0.00189063
0.00189063
0.00186336
0.00186336
0.00189063
0.00186336
0.00186336
0.00189223
0.00186169
0.00189063
0.00186336
0.00186336
0.00186169
0.00185587
0.00182542
0.00185428
0.00185428
0.00182708
0.00182708
0.00185587
0.00182542
0.00185428
0.00185428
0.00182708
0.00182708
0.00185428
0.00182708
0.00182708
0.00185587
0.00182542
0.00185428
0.00182708
0.00182708
0.00182542
0.00181962
0.00178925
0.00181803
0.00181803
0.00179091
0.00179091
0.00181962
0.00178925
0.00181803
0.00181803
0.00179091
0.00179091
0.00181803
0.00179091
0.00179091
0.00181962
0.00178925
0.00181803
0.00179091
0.00179091
0.00178925
0.00178347
0.00175317
0.00178188
0.00178188
0.00175483
0.00175483
0.00178346
0.00175317
0.00178188
0.00178188
0.00175483
0.00175483
0.00178188
0.00175483
0.00175483
0.00178347
0.00175317
0.00178188
0.00175483
0.00175483
0.00175317
0.0017474
0.00171718
0.00174582
0.00174582
0.00171883
0.00171883
0.0017474
0.00171718
0.00174582
0.00174582
0.00171883
0.00171883
0.00174582
0.00171883
0.00171883
0.0017474
0.00171718
0.00174582
0.00171883
0.00171883
0.00171718
0.00171142
0.00168127
0.00170985
0.00170985
0.00168292
0.00168292
0.00171142
0.00168127
0.00170985
0.00170985
0.00168292
0.00168292
0.00170985
0.00168292
0.00168292
0.00171142
0.00168127
0.00170985
0.00168292
0.00168292
0.00168127
0.00361667
0.00362664
0.00362124
0.00362125
0.00364371
0.00363063
0.0036591
0.00362455
0.00364369
0.00363063
0.00362454
0.00365907
0.00363513
0.00366324
0.00366308
0.00357561
0.00357568
0.003594
0.00357393
0.00355391
0.00357286
0.00357561
0.00357568
0.00359399
0.00357392
0.00359413
0.00359414
0.00359414
0.00355298
0.00355298
0.00355298
0.00355298
0.00357429
0.00359111
0.00359421
0.00357846
0.00359638
0.00357525
0.0035791
0.00355402
0.0035729
0.00357429
0.00359421
0.00359109
0.00357846
0.00359637
0.0035791
0.00357524
0.00358774
0.00358768
0.00357531
0.0035756
0.0035756
0.00352595
0.00354381
0.00354483
0.00352504
0.00354318
0.00352457
0.00352594
0.0035438
0.00354483
0.00352504
0.00354059
0.00354059
0.00354059
0.00350228
0.00350228
0.00350228
0.00350228
0.00352504
0.0035443
0.00354066
0.0035281
0.00354359
0.00352551
0.00352805
0.00354318
0.00352457
0.00352504
0.00354066
0.00354429
0.0035281
0.00354359
0.00352804
0.00352551
0.00354457
0.00354457
0.00352547
0.00352563
0.00352563
0.00347368
0.00349227
0.00349312
0.0034729
0.00349198
0.00347266
0.00347368
0.00349227
0.00349312
0.0034729
0.0034893
0.0034893
0.0034893
0.00345034
0.00345034
0.00345034
0.00345034
0.00347316
0.00349265
0.00348931
0.00347632
0.00349236
0.00347333
0.0034763
0.00349198
0.00347266
0.00347316
0.00348931
0.00349265
0.00347632
0.00349235
0.0034763
0.00347332
0.00349272
0.00349272
0.00347364
0.00347327
0.00347327
0.00342156
0.00344005
0.00344074
0.00342095
0.00343988
0.0034208
0.00342156
0.00344005
0.00344074
0.00342095
0.0034374
0.0034374
0.0034374
0.00339897
0.00339897
0.00339897
0.00339897
0.00342129
0.00344036
0.00343737
0.00342448
0.00344026
0.00342133
0.00342448
0.00343989
0.0034208
0.00342129
0.00343737
0.00344036
0.00342448
0.00344026
0.00342448
0.00342133
0.00344036
0.00344036
0.00342182
0.00342121
0.00342122
0.00337069
0.00338883
0.00338933
0.00337025
0.00338872
0.00337012
0.00337069
0.00338883
0.00338933
0.00337025
0.00338632
0.00338632
0.00338632
0.00334891
0.00334891
0.00334891
0.00334891
0.00337058
0.00338907
0.00338628
0.00337371
0.00338904
0.00337058
0.00337372
0.00338871
0.00337013
0.00337058
0.00338628
0.00338907
0.00337371
0.00338904
0.00337372
0.00337058
0.00338906
0.00338906
0.00337114
0.00337046
0.00337046
0.00332135
0.00333906
0.00333941
0.00332104
0.00333897
0.00332091
0.00332134
0.00333905
0.00333941
0.00332104
0.00333662
0.00333662
0.00333662
0.00330028
0.00330028
0.00330028
0.00330028
0.00332133
0.00333924
0.00333657
0.00332438
0.00333922
0.00332133
0.00332437
0.00333896
0.00332093
0.00332133
0.00333657
0.00333924
0.00332438
0.00333923
0.00332437
0.00332133
0.00333925
0.00333925
0.00332191
0.00332122
0.00332122
0.00327346
0.00329075
0.00329099
0.00327324
0.00329066
0.00327313
0.00327346
0.00329074
0.00329099
0.00327324
0.00328834
0.00328834
0.00328834
0.003253
0.003253
0.003253
0.003253
0.00327351
0.00329089
0.0032883
0.00327645
0.00329088
0.00327351
0.00327644
0.00329066
0.00327313
0.00327351
0.0032883
0.00329089
0.00327645
0.00329088
0.00327644
0.00327351
0.00329091
0.00329091
0.00327408
0.0032734
0.0032734
0.00322683
0.00324374
0.00324391
0.00322667
0.00324366
0.00322656
0.00322683
0.00324374
0.00324392
0.00322667
0.00324136
0.00324136
0.00324136
0.00320685
0.00320685
0.00320685
0.00320685
0.00322693
0.00324385
0.00324133
0.00322978
0.00324384
0.00322692
0.00322976
0.00324366
0.00322656
0.00322693
0.00324133
0.00324385
0.00322978
0.00324384
0.00322976
0.00322692
0.00324389
0.00324389
0.00322749
0.00322681
0.00322681
0.00318125
0.00319783
0.00319797
0.00318111
0.00319776
0.00318102
0.00318125
0.00319783
0.00319797
0.00318111
0.00319547
0.00319547
0.00319547
0.00316165
0.00316165
0.00316165
0.00316165
0.00318138
0.00319792
0.00319544
0.00318414
0.00319791
0.00318137
0.00318412
0.00319776
0.00318102
0.00318138
0.00319544
0.00319792
0.00318414
0.00319792
0.00318412
0.00318137
0.00319797
0.00319797
0.00318191
0.00318125
0.00318125
0.00313651
0.00315282
0.00315293
0.00313639
0.00315275
0.00313629
0.0031365
0.00315282
0.00315293
0.00313639
0.00315047
0.00315047
0.00315047
0.00311721
0.00311721
0.00311721
0.00311721
0.00313666
0.0031529
0.00315045
0.00313935
0.00315289
0.00313664
0.00313932
0.00315275
0.00313629
0.00313666
0.00315045
0.0031529
0.00313935
0.00315289
0.00313932
0.00313664
0.00315294
0.00315294
0.00313717
0.00313651
0.00313651
0.00309244
0.00310852
0.00310862
0.00309233
0.00310846
0.00309224
0.00309244
0.00310852
0.00310862
0.00309232
0.0031062
0.0031062
0.0031062
0.00307339
0.00307339
0.00307339
0.00307339
0.00309261
0.0031086
0.00310618
0.00309523
0.00310859
0.00309258
0.00309521
0.00310845
0.00309223
0.00309261
0.00310618
0.0031086
0.00309523
0.00310859
0.00309521
0.00309258
0.00310864
0.00310864
0.0030931
0.00309244
0.00309244
0.00304894
0.00306482
0.00306492
0.00304882
0.00306476
0.00304874
0.00304894
0.00306482
0.00306492
0.00304882
0.00306252
0.00306252
0.00306252
0.0030301
0.0030301
0.0030301
0.0030301
0.00304913
0.00306489
0.00306251
0.00305169
0.0030649
0.00304908
0.00305167
0.00306476
0.00304874
0.00304913
0.00306251
0.00306489
0.00305169
0.0030649
0.00305167
0.00304908
0.00306492
0.00306492
0.00304958
0.00304893
0.00304893
0.00300593
0.00302164
0.00302173
0.00300581
0.00302158
0.00300573
0.00300593
0.00302164
0.00302174
0.00300581
0.00301935
0.00301935
0.00301935
0.00298728
0.00298728
0.00298728
0.00298728
0.00300614
0.00302169
0.00301934
0.00300864
0.00302172
0.00300607
0.00300863
0.00302158
0.00300573
0.00300614
0.00301934
0.00302169
0.00300864
0.00302172
0.00300863
0.00300607
0.00302173
0.00302173
0.00300655
0.00300591
0.00300591
0.00296337
0.00297891
0.00297901
0.00296325
0.00297886
0.00296317
0.00296337
0.00297891
0.00297901
0.00296325
0.00297665
0.00297665
0.00297665
0.0029449
0.0029449
0.0029449
0.0029449
0.0029636
0.00297896
0.00297665
0.00296605
0.002979
0.0029635
0.00296604
0.00297886
0.00296317
0.0029636
0.00297665
0.00297896
0.00296605
0.002979
0.00296604
0.0029635
0.00297899
0.00297899
0.002964
0.00296333
0.00296333
0.00292123
0.00293662
0.00293672
0.0029211
0.00293657
0.00292104
0.00292123
0.00293662
0.00293672
0.0029211
0.00293438
0.00293438
0.00293438
0.00290294
0.00290294
0.00290294
0.00290294
0.00292148
0.00293666
0.00293438
0.00292388
0.00293671
0.00292135
0.00292387
0.00293657
0.00292104
0.00292148
0.00293438
0.00293666
0.00292388
0.00293671
0.00292387
0.00292135
0.00293669
0.00293669
0.00292187
0.00292118
0.00292118
0.00287949
0.00289473
0.00289483
0.00287936
0.00289468
0.0028793
0.00287949
0.00289473
0.00289483
0.00287936
0.00289251
0.00289251
0.00289251
0.00286136
0.00286136
0.00286136
0.00286136
0.00287975
0.00289476
0.00289251
0.00288211
0.00289483
0.0028796
0.00288211
0.00289469
0.0028793
0.00287975
0.00289251
0.00289476
0.00288211
0.00289483
0.00288211
0.0028796
0.00289479
0.00289479
0.00288014
0.00287943
0.00287943
0.00283812
0.00285323
0.00285333
0.00283799
0.00285319
0.00283793
0.00283812
0.00285322
0.00285333
0.00283799
0.00285102
0.00285102
0.00285102
0.00282014
0.00282014
0.00282014
0.00282014
0.00283839
0.00285325
0.00285103
0.00284071
0.00285333
0.00283822
0.00284071
0.00285319
0.00283793
0.0028384
0.00285103
0.00285325
0.00284071
0.00285333
0.00284071
0.00283822
0.00285328
0.00285328
0.00283878
0.00283805
0.00283805
0.0027971
0.00281209
0.00281218
0.00279697
0.00281205
0.00279692
0.0027971
0.00281208
0.00281218
0.00279697
0.00280989
0.00280988
0.00280989
0.00277925
0.00277925
0.00277925
0.00277925
0.00279739
0.0028121
0.00280989
0.00279966
0.00281218
0.0027972
0.00279966
0.00281205
0.00279692
0.00279739
0.00280989
0.0028121
0.00279966
0.00281219
0.00279966
0.0027972
0.00281213
0.00281213
0.00279776
0.00279702
0.00279702
0.0027564
0.00277129
0.00277137
0.00275627
0.00277125
0.00275624
0.0027564
0.00277128
0.00277137
0.00275628
0.00276908
0.00276908
0.00276908
0.00273869
0.00273869
0.00273869
0.00273869
0.00275669
0.00277129
0.00276909
0.00275894
0.00277137
0.0027565
0.00275894
0.00277125
0.00275623
0.0027567
0.00276909
0.00277129
0.00275894
0.00277137
0.00275894
0.0027565
0.00277132
0.00277132
0.00275707
0.00275632
0.00275632
0.002716
0.00273078
0.00273087
0.00271589
0.00273075
0.00271586
0.002716
0.00273078
0.00273087
0.00271589
0.00272859
0.00272859
0.00272859
0.00269842
0.00269842
0.00269842
0.00269842
0.0027163
0.00273078
0.0027286
0.00271852
0.00273087
0.0027161
0.00271852
0.00273076
0.00271584
0.0027163
0.0027286
0.00273079
0.00271852
0.00273087
0.00271852
0.0027161
0.00273082
0.00273082
0.00271668
0.00271593
0.00271593
0.00267588
0.00269057
0.00269065
0.00267577
0.00269054
0.00267574
0.00267588
0.00269057
0.00269065
0.00267577
0.00268839
0.00268839
0.00268839
0.00265842
0.00265842
0.00265842
0.00265842
0.00267618
0.00269057
0.0026884
0.00267839
0.00269064
0.00267597
0.00267839
0.00269055
0.00267573
0.00267618
0.0026884
0.00269057
0.00267839
0.00269064
0.00267839
0.00267597
0.0026906
0.0026906
0.00267657
0.00267581
0.00267581
0.00263602
0.00265063
0.0026507
0.00263592
0.00265061
0.00263588
0.00263602
0.00265063
0.0026507
0.00263592
0.00264846
0.00264846
0.00264846
0.00261867
0.00261867
0.00261867
0.00261867
0.00263632
0.00265062
0.00264846
0.00263851
0.00265069
0.00263611
0.00263851
0.00265061
0.00263588
0.00263632
0.00264846
0.00265062
0.00263851
0.00265069
0.00263851
0.00263611
0.00265065
0.00265065
0.00263672
0.00263595
0.00263595
0.00259641
0.00261094
0.00261101
0.00259631
0.00261092
0.00259628
0.00259641
0.00261094
0.00261101
0.00259631
0.00260877
0.00260877
0.00260877
0.00257916
0.00257917
0.00257917
0.00257916
0.0025967
0.00261092
0.00260877
0.00259889
0.00261098
0.0025965
0.00259889
0.00261092
0.00259628
0.0025967
0.00260877
0.00261092
0.00259889
0.00261098
0.00259889
0.0025965
0.00261096
0.00261096
0.00259711
0.00259634
0.00259634
0.00255703
0.00257148
0.00257154
0.00255693
0.00257146
0.0025569
0.00255703
0.00257148
0.00257154
0.00255693
0.00256932
0.00256933
0.00256932
0.00253989
0.00253989
0.00253989
0.00253989
0.00255731
0.00257146
0.00256932
0.0025595
0.00257151
0.00255711
0.0025595
0.00257146
0.0025569
0.0025573
0.00256932
0.00257146
0.0025595
0.00257151
0.0025595
0.00255711
0.0025715
0.0025715
0.00255774
0.00255696
0.00255696
0.00251786
0.00253224
0.0025323
0.00251777
0.00253223
0.00251775
0.00251786
0.00253224
0.0025323
0.00251777
0.0025301
0.0025301
0.0025301
0.00250083
0.00250083
0.00250083
0.00250083
0.00251812
0.00253222
0.0025301
0.00252033
0.00253226
0.00251794
0.00252033
0.00253223
0.00251775
0.00251812
0.0025301
0.00253222
0.00252033
0.00253226
0.00252033
0.00251794
0.00253226
0.00253226
0.00251859
0.0025178
0.0025178
0.00247891
0.00249322
0.00249328
0.00247883
0.00249321
0.0024788
0.00247891
0.00249322
0.00249327
0.00247883
0.0024911
0.0024911
0.0024911
0.00246198
0.00246198
0.00246198
0.00246198
0.00247916
0.00249319
0.00249109
0.00248137
0.00249323
0.00247898
0.00248137
0.00249321
0.0024788
0.00247916
0.00249109
0.0024932
0.00248137
0.00249323
0.00248137
0.00247898
0.00249324
0.00249324
0.00247965
0.00247885
0.00247885
0.00244016
0.00245441
0.00245446
0.00244008
0.0024544
0.00244006
0.00244016
0.00245441
0.00245446
0.00244008
0.0024523
0.0024523
0.0024523
0.00242333
0.00242333
0.00242333
0.00242333
0.0024404
0.00245438
0.00245229
0.00244262
0.0024544
0.00244023
0.00244262
0.0024544
0.00244006
0.0024404
0.00245229
0.00245438
0.00244262
0.0024544
0.00244262
0.00244023
0.00245442
0.00245442
0.0024409
0.00244011
0.0024401
0.00240161
0.00241579
0.00241584
0.00240154
0.00241578
0.00240152
0.00240161
0.00241579
0.00241584
0.00240154
0.0024137
0.0024137
0.0024137
0.00238487
0.00238487
0.00238487
0.00238487
0.00240184
0.00241576
0.00241368
0.00240406
0.00241578
0.00240167
0.00240406
0.00241578
0.00240152
0.00240184
0.00241368
0.00241576
0.00240406
0.00241578
0.00240406
0.00240167
0.00241581
0.00241581
0.00240235
0.00240156
0.00240156
0.00236325
0.00237737
0.00237741
0.00236318
0.00237736
0.00236316
0.00236325
0.00237737
0.00237741
0.00236318
0.00237529
0.00237529
0.00237529
0.0023466
0.0023466
0.0023466
0.0023466
0.00236347
0.00237734
0.00237527
0.0023657
0.00237735
0.00236331
0.0023657
0.00237736
0.00236316
0.00236347
0.00237527
0.00237734
0.0023657
0.00237735
0.0023657
0.00236331
0.00237738
0.00237738
0.00236399
0.0023632
0.0023632
0.00232507
0.00233913
0.00233917
0.00232501
0.00233912
0.00232499
0.00232507
0.00233913
0.00233917
0.00232501
0.00233706
0.00233706
0.00233706
0.00230851
0.00230851
0.00230851
0.00230851
0.00232529
0.0023391
0.00233705
0.00232751
0.00233911
0.00232513
0.00232752
0.00233912
0.00232499
0.00232529
0.00233705
0.0023391
0.00232751
0.00233911
0.00232752
0.00232513
0.00233915
0.00233915
0.00232582
0.00232502
0.00232503
0.00228708
0.00230107
0.00230111
0.00228701
0.00230107
0.00228699
0.00228708
0.00230107
0.00230111
0.00228701
0.00229902
0.00229902
0.00229902
0.0022706
0.0022706
0.0022706
0.0022706
0.00228728
0.00230104
0.002299
0.00228951
0.00230105
0.00228713
0.00228952
0.00230107
0.00228699
0.00228728
0.002299
0.00230104
0.00228951
0.00230105
0.00228952
0.00228713
0.00230109
0.00230109
0.00228782
0.00228703
0.00228703
0.00224925
0.00226319
0.00226322
0.00224919
0.00226318
0.00224917
0.00224925
0.00226319
0.00226322
0.00224919
0.00226115
0.00226115
0.00226114
0.00223285
0.00223285
0.00223285
0.00223285
0.00224945
0.00226316
0.00226113
0.00225168
0.00226316
0.0022493
0.00225169
0.00226318
0.00224917
0.00224945
0.00226113
0.00226316
0.00225168
0.00226316
0.00225169
0.0022493
0.0022632
0.0022632
0.00224999
0.0022492
0.0022492
0.00221159
0.00222547
0.00222551
0.00221153
0.00222547
0.00221151
0.00221159
0.00222547
0.00222551
0.00221153
0.00222344
0.00222344
0.00222344
0.00219527
0.00219527
0.00219527
0.00219527
0.00221178
0.00222544
0.00222343
0.00221401
0.00222544
0.00221164
0.00221403
0.00222547
0.00221151
0.00221178
0.00222343
0.00222544
0.00221401
0.00222544
0.00221403
0.00221164
0.00222549
0.00222549
0.00221232
0.00221154
0.00221154
0.00217409
0.00218792
0.00218795
0.00217403
0.00218792
0.00217402
0.00217409
0.00218792
0.00218795
0.00217403
0.0021859
0.0021859
0.0021859
0.00215784
0.00215784
0.00215784
0.00215784
0.00217427
0.00218789
0.00218588
0.00217651
0.00218789
0.00217414
0.00217652
0.00218792
0.00217402
0.00217428
0.00218588
0.00218789
0.00217651
0.00218789
0.00217652
0.00217414
0.00218793
0.00218793
0.00217482
0.00217405
0.00217405
0.00213674
0.00215052
0.00215055
0.00213669
0.00215052
0.00213668
0.00213674
0.00215052
0.00215055
0.00213669
0.00214851
0.00214851
0.00214851
0.00212057
0.00212057
0.00212057
0.00212057
0.00213692
0.00215049
0.0021485
0.00213916
0.00215049
0.00213679
0.00213918
0.00215052
0.00213668
0.00213693
0.0021485
0.00215049
0.00213916
0.00215049
0.00213918
0.00213679
0.00215053
0.00215053
0.00213747
0.0021367
0.0021367
0.00209954
0.00211327
0.0021133
0.0020995
0.00211327
0.00209948
0.00209954
0.00211327
0.0021133
0.0020995
0.00211127
0.00211127
0.00211127
0.00208344
0.00208344
0.00208344
0.00208344
0.00209972
0.00211324
0.00211126
0.00210195
0.00211324
0.0020996
0.00210198
0.00211327
0.00209948
0.00209972
0.00211126
0.00211324
0.00210195
0.00211324
0.00210198
0.00209959
0.00211329
0.00211329
0.00210027
0.00209951
0.00209951
0.00206249
0.00207617
0.0020762
0.00206245
0.00207617
0.00206243
0.00206249
0.00207617
0.0020762
0.00206245
0.00207418
0.00207418
0.00207418
0.00204646
0.00204646
0.00204645
0.00204645
0.00206267
0.00207614
0.00207417
0.00206489
0.00207614
0.00206254
0.00206492
0.00207617
0.00206243
0.00206267
0.00207417
0.00207614
0.00206489
0.00207614
0.00206492
0.00206254
0.00207619
0.00207619
0.00206321
0.00206246
0.00206246
0.00202557
0.00203921
0.00203923
0.00202553
0.00203921
0.00202552
0.00202557
0.00203921
0.00203923
0.00202553
0.00203723
0.00203723
0.00203723
0.0020096
0.0020096
0.0020096
0.0020096
0.00202575
0.00203918
0.00203722
0.00202797
0.00203918
0.00202562
0.002028
0.00203921
0.00202552
0.00202575
0.00203722
0.00203918
0.00202797
0.00203917
0.002028
0.00202562
0.00203922
0.00203922
0.00202629
0.00202554
0.00202554
0.00198879
0.00200238
0.0020024
0.00198875
0.00200238
0.00198874
0.00198879
0.00200238
0.0020024
0.00198875
0.00200041
0.00200041
0.00200041
0.00197288
0.00197288
0.00197288
0.00197288
0.00198896
0.00200235
0.0020004
0.00199118
0.00200235
0.00198884
0.00199121