/*--------------------------------*- C++ -*----------------------------------*\
| =========                 |                                                 |
| \\      /  F ield         | OpenFOAM: The Open Source CFD Toolbox           |
|  \\    /   O peration     | Version:  v2012                                 |
|   \\  /    A nd           | Website:  www.openfoam.com                      |
|    \\/     M anipulation  |                                                 |
\*---------------------------------------------------------------------------*/
FoamFile
{
    version     2.0;
    format      ascii;
    class       surfaceScalarField;
    location    "300";
    object      phi;
}
// * * * * * * * * * * * * * * * * * * * * * * * * * * * * * * * * * * * * * //

dimensions      [0 3 -1 0 0 0 0];
oriented        oriented;


internalField   nonuniform List<scalar> 
248808
(
-0.00104218
-1.46323e-05
-1.45286e-05
9.38414e-06
9.21511e-06
0.00105274
-0.00026149
-5.68419e-06
1.45096e-05
6.89003e-06
0.00105925
-4.59362e-06
-1.59783e-06
-2.12145e-06
-2.49168e-06
-6.62443e-06
-7.1156e-06
-2.98634e-06
-0.000263331
-0.000259761
-0.000262856
-0.000261466
-5.68898e-06
1.45383e-05
6.97869e-06
0.00105904
-4.59886e-06
-1.60781e-06
-2.12889e-06
-2.49522e-06
-6.61885e-06
-7.1113e-06
-2.98851e-06
-0.000259733
-0.000263303
-0.000262819
-0.000260564
5.65976e-06
5.69983e-06
-4.95407e-06
-4.94809e-06
0.000259106
-1.65238e-06
-1.65482e-06
-0.0010608
9.33984e-07
9.34809e-07
0.00106224
-0.00106275
-1.61859e-06
1.64867e-06
8.31106e-07
0.00106394
-6.80123e-07
8.34962e-07
-9.91606e-08
4.23249e-07
-8.50373e-07
-1.43173e-06
-2.54793e-07
-0.00106243
-1.61343e-06
1.65949e-06
8.2609e-07
0.00106362
-6.79956e-07
8.29594e-07
-9.91261e-08
4.20545e-07
-8.52999e-07
-1.43153e-06
-2.52403e-07
-0.000261567
1.65093e-06
1.61399e-06
-6.98568e-07
-7.0134e-07
0.000259702
-1.37496e-06
-1.37645e-06
-0.00106636
6.96231e-07
6.97159e-07
0.00106772
-0.00106788
-1.5725e-06
1.38115e-06
6.90548e-07
0.00106923
-6.57104e-07
8.78563e-07
-7.30973e-08
4.61573e-07
-8.37477e-07
-1.39918e-06
-2.21494e-07
-0.00106756
-1.56713e-06
1.37607e-06
6.95688e-07
0.0010689
-6.57011e-07
8.73375e-07
-7.30171e-08
4.61564e-07
-8.37413e-07
-1.39364e-06
-2.19032e-07
-0.000262803
1.60214e-06
1.56755e-06
-6.63537e-07
-6.71428e-07
0.000260968
-1.34952e-06
-1.35124e-06
-0.00107181
6.75532e-07
6.76441e-07
0.00107316
-0.00107323
-1.57226e-06
1.35102e-06
6.66332e-07
0.00107455
-6.53358e-07
9.00891e-07
-5.29753e-08
4.75628e-07
-8.28346e-07
-1.40463e-06
-1.94791e-07
-0.00107289
-1.56693e-06
1.35034e-06
6.66195e-07
0.00107421
-6.50649e-07
8.95524e-07
-5.5018e-08
4.75677e-07
-8.30714e-07
-1.40433e-06
-1.92212e-07
-0.00026408
1.59954e-06
1.56732e-06
-6.5574e-07
-6.61129e-07
0.00026223
-1.30256e-06
-1.30445e-06
-0.00107714
6.50898e-07
6.51751e-07
0.00107845
-0.0010784
-1.56395e-06
1.30461e-06
6.35241e-07
0.00107966
-6.38478e-07
9.25102e-07
-3.46772e-08
4.94956e-07
-8.09851e-07
-1.40336e-06
-1.64898e-07
-0.00107806
-1.55861e-06
1.30378e-06
6.35147e-07
0.00107932
-6.35775e-07
9.19717e-07
-3.66102e-08
4.94968e-07
-8.12102e-07
-1.40306e-06
-1.62246e-07
-0.000265299
1.59166e-06
1.55915e-06
-6.40279e-07
-6.45889e-07
0.000263434
-1.25232e-06
-1.25356e-06
-0.00108228
6.25779e-07
6.26912e-07
0.00108354
-0.00108333
-1.55503e-06
1.25415e-06
6.05945e-07
0.00108452
-6.2418e-07
9.47016e-07
-1.38908e-08
5.16209e-07
-7.89082e-07
-1.3969e-06
-1.36874e-07
-0.00108299
-1.5495e-06
1.25397e-06
6.05878e-07
0.00108418
-6.21309e-07
9.41776e-07
-1.6428e-08
5.16041e-07
-7.91498e-07
-1.39681e-06
-1.344e-07
-0.000266443
1.58272e-06
1.54997e-06
-6.2421e-07
-6.29835e-07
0.000264565
-1.20615e-06
-1.2073e-06
-0.00108722
6.04148e-07
6.05218e-07
0.00108843
-0.00108801
-1.54741e-06
1.20738e-06
5.82312e-07
0.00108914
-6.12042e-07
9.66519e-07
3.57246e-09
5.37615e-07
-7.69613e-07
-1.38884e-06
-1.12174e-07
-0.00108766
-1.54191e-06
1.20739e-06
5.82407e-07
0.0010888
-6.09231e-07
9.61204e-07
9.58371e-10
5.37545e-07
-7.72169e-07
-1.3887e-06
-1.09819e-07
-0.000267514
1.57521e-06
1.54231e-06
-6.10041e-07
-6.15611e-07
0.000265622
-1.16594e-06
-1.16752e-06
-0.00109197
5.86409e-07
5.87053e-07
0.00109313
-0.00109245
-1.54174e-06
1.1666e-06
5.63787e-07
0.00109353
-6.02651e-07
9.83706e-07
1.8008e-08
5.58486e-07
-7.52629e-07
-1.38079e-06
-9.09526e-08
-0.00109211
-1.53634e-06
1.1665e-06
5.6405e-07
0.00109319
-5.99919e-07
9.78258e-07
1.5293e-08
5.58544e-07
-7.5513e-07
-1.38053e-06
-8.8574e-08
-0.000268517
1.56974e-06
1.53659e-06
-5.98183e-07
-6.03875e-07
0.000266612
-1.13085e-06
-1.1335e-06
-0.00109655
5.71353e-07
5.71627e-07
0.00109767
-0.00109669
-1.53793e-06
1.13209e-06
5.49307e-07
0.00109772
-5.95924e-07
9.98723e-07
2.98247e-08
5.78615e-07
-7.38035e-07
-1.37332e-06
-7.27636e-08
-0.00109635
-1.53261e-06
1.13209e-06
5.49874e-07
0.00109738
-5.93253e-07
9.9316e-07
2.69905e-08
5.78647e-07
-7.40525e-07
-1.37308e-06
-7.04525e-08
-0.000269456
1.56614e-06
1.53275e-06
-5.88535e-07
-5.94343e-07
0.00026754
-1.10065e-06
-1.10304e-06
-0.00110098
5.57902e-07
5.58313e-07
0.00110207
-0.00110074
-1.53633e-06
1.10181e-06
5.37438e-07
0.00110173
-5.91908e-07
1.01165e-06
4.36385e-08
5.97658e-07
-7.25404e-07
-1.36665e-06
-5.74459e-08
-0.0011004
-1.5309e-06
1.10234e-06
5.38243e-07
0.00110138
-5.89107e-07
1.00619e-06
3.9671e-08
5.97694e-07
-7.27926e-07
-1.36642e-06
-5.5228e-08
-0.000270337
1.56429e-06
1.5308e-06
-5.81001e-07
-5.86705e-07
0.00026841
-1.07455e-06
-1.07595e-06
-0.00110529
5.46066e-07
5.46819e-07
0.00110635
-0.00110462
-1.53562e-06
1.07557e-06
5.28497e-07
0.00110557
-5.86219e-07
1.02384e-06
5.15836e-08
6.15563e-07
-7.13761e-07
-1.36042e-06
-4.45333e-08
-0.00110428
-1.53017e-06
1.0758e-06
5.28762e-07
0.00110522
-5.86183e-07
1.01837e-06
5.15692e-08
6.1556e-07
-7.16365e-07
-1.36023e-06
-4.24068e-08
-0.000271165
1.56368e-06
1.53015e-06
-5.74869e-07
-5.80563e-07
0.000269226
-1.05033e-06
-1.05138e-06
-0.00110948
5.35156e-07
5.36018e-07
0.00111051
-0.00110835
-1.53519e-06
1.05156e-06
5.19671e-07
0.00110926
-5.83692e-07
1.03564e-06
6.15163e-08
6.32409e-07
-7.02183e-07
-1.35394e-06
-3.34303e-08
-0.001108
-1.52969e-06
1.05168e-06
5.19917e-07
0.00110891
-5.83583e-07
1.03016e-06
6.15385e-08
6.32429e-07
-7.04764e-07
-1.35372e-06
-3.1365e-08
-0.00027194
1.56337e-06
1.52977e-06
-5.69237e-07
-5.74951e-07
0.000269991
-1.02662e-06
-1.02753e-06
-0.00111356
5.24363e-07
5.25093e-07
0.00111457
-0.00111192
-1.53485e-06
1.028e-06
5.10228e-07
0.00111279
-5.8084e-07
1.04725e-06
7.03798e-08
6.47855e-07
-6.90365e-07
-1.34701e-06
-2.10422e-08
-0.00111157
-1.52936e-06
1.02793e-06
5.1039e-07
0.00111244
-5.80768e-07
1.04162e-06
7.03526e-08
6.47824e-07
-6.93008e-07
-1.34684e-06
-1.82393e-08
-0.000272663
1.56324e-06
1.52946e-06
-5.64063e-07
-5.69818e-07
0.000270704
-1.00388e-06
-1.00505e-06
-0.00111754
5.14214e-07
5.14731e-07
0.00111852
-0.00111535
-1.53475e-06
1.0055e-06
4.99946e-07
0.00111618
-5.76911e-07
1.05794e-06
7.89769e-08
6.62054e-07
-6.77649e-07
-1.33924e-06
-8.96467e-09
-0.001115
-1.52926e-06
1.00524e-06
5.00329e-07
0.00111583
-5.76901e-07
1.05232e-06
7.88399e-08
6.62058e-07
-6.80258e-07
-1.33905e-06
-6.12708e-09
-0.000273333
1.56319e-06
1.5294e-06
-5.58661e-07
-5.64286e-07
0.000271364
-9.81779e-07
-9.83085e-07
-0.00112143
5.0424e-07
5.04646e-07
0.00112238
-0.00111862
-1.53429e-06
9.83418e-07
4.89224e-07
0.00111942
-5.71758e-07
1.06786e-06
8.74708e-08
6.75022e-07
-6.63905e-07
-1.33042e-06
2.20819e-09
-0.00111827
-1.52884e-06
9.82988e-07
4.89618e-07
0.00111907
-5.71789e-07
1.06225e-06
8.73138e-08
6.75075e-07
-6.66459e-07
-1.33015e-06
5.14467e-09
-0.000273948
1.56278e-06
1.52893e-06
-5.52155e-07
-5.57717e-07
0.000271967
-9.60009e-07
-9.61302e-07
-0.00112521
4.94274e-07
4.94669e-07
0.00112615
-0.00112175
-1.53302e-06
9.61396e-07
4.78342e-07
0.0011225
-5.65507e-07
1.07764e-06
9.55089e-08
6.86925e-07
-6.49318e-07
-1.32053e-06
1.25439e-08
-0.00112139
-1.52758e-06
9.60961e-07
4.78563e-07
0.00112215
-5.65515e-07
1.07198e-06
9.53907e-08
6.86964e-07
-6.51837e-07
-1.32026e-06
1.5519e-08
-0.000274505
1.56164e-06
1.5276e-06
-5.44778e-07
-5.50511e-07
0.000272511
-9.38731e-07
-9.39826e-07
-0.00112891
4.84474e-07
4.84989e-07
0.00112982
-0.00112471
-1.53113e-06
9.39789e-07
4.67256e-07
0.00112543
-5.57977e-07
1.08694e-06
1.0325e-07
6.97666e-07
-6.34091e-07
-1.30964e-06
2.21618e-08
-0.00112436
-1.52571e-06
9.39321e-07
4.67474e-07
0.00112507
-5.58016e-07
1.08128e-06
1.03206e-07
6.97807e-07
-6.36632e-07
-1.30945e-06
2.51204e-08
-0.000275
1.55993e-06
1.52574e-06
-5.3702e-07
-5.42823e-07
0.000272994
-9.17706e-07
-9.18286e-07
-0.00113251
4.74529e-07
4.75341e-07
0.0011334
-0.00112751
-1.52868e-06
9.18501e-07
4.56018e-07
0.00112819
-5.49374e-07
1.09551e-06
1.10759e-07
7.07731e-07
-6.18645e-07
-1.29798e-06
3.21579e-08
-0.00112716
-1.52326e-06
9.1776e-07
4.5585e-07
0.00112783
-5.49457e-07
1.08977e-06
1.10664e-07
7.07558e-07
-6.21422e-07
-1.2979e-06
3.65777e-08
-0.00027543
1.55757e-06
1.52329e-06
-5.28698e-07
-5.34557e-07
0.000273413
-8.97096e-07
-8.9745e-07
-0.00113602
4.65166e-07
4.66171e-07
0.00113688
-0.00113014
-1.52563e-06
8.97426e-07
4.44792e-07
0.00113078
-5.39967e-07
1.10331e-06
1.17831e-07
7.16459e-07
-6.03352e-07
-1.28606e-06
4.43164e-08
-0.00112979
-1.52012e-06
8.96909e-07
4.44521e-07
0.00113042
-5.39988e-07
1.09763e-06
1.17865e-07
7.16345e-07
-6.06101e-07
-1.28591e-06
4.82155e-08
-0.000275792
1.55454e-06
1.52018e-06
-5.19798e-07
-5.25672e-07
0.000273763
-8.7718e-07
-8.77129e-07
-0.00113944
4.56489e-07
4.57514e-07
0.00114028
-0.0011326
-1.5216e-06
8.77198e-07
4.34501e-07
0.00113319
-5.29575e-07
1.11059e-06
1.24794e-07
7.24522e-07
-5.87876e-07
-1.2732e-06
5.48004e-08
-0.00113224
-1.51609e-06
8.76732e-07
4.34251e-07
0.00113283
-5.29599e-07
1.1049e-06
1.24814e-07
7.24438e-07
-5.90654e-07
-1.2731e-06
5.84571e-08
-0.000276084
1.55055e-06
1.51617e-06
-5.101e-07
-5.15985e-07
0.000274044
-8.57585e-07
-8.57706e-07
-0.00114276
4.48405e-07
4.49492e-07
0.00114357
-0.00113488
-1.51655e-06
8.57586e-07
4.24235e-07
0.00113542
-5.21466e-07
1.11726e-06
1.34373e-07
7.32247e-07
-5.72531e-07
-1.25931e-06
6.42903e-08
-0.00113452
-1.51101e-06
8.57357e-07
4.24091e-07
0.00113506
-5.18603e-07
1.11162e-06
1.31478e-07
7.3213e-07
-5.75228e-07
-1.25924e-06
6.77827e-08
-0.000276305
1.54553e-06
1.5111e-06
-4.99647e-07
-5.05457e-07
0.000274254
-8.38073e-07
-8.38623e-07
-0.001146
4.40844e-07
4.41685e-07
0.00114679
-0.00113697
-1.51031e-06
8.38287e-07
4.14369e-07
0.00113746
-5.10055e-07
1.12359e-06
1.40927e-07
7.39803e-07
-5.5722e-07
-1.24467e-06
7.30239e-08
-0.00113661
-1.50478e-06
8.3823e-07
4.14297e-07
0.0011371
-5.07218e-07
1.11793e-06
1.37827e-07
7.396e-07
-5.59974e-07
-1.24458e-06
7.64413e-08
-0.000276455
1.5393e-06
1.50482e-06
-4.88327e-07
-4.94085e-07
0.000274393
-8.18737e-07
-8.19458e-07
-0.00114914
4.33522e-07
4.3411e-07
0.00114991
-0.00113886
-1.50278e-06
8.19196e-07
4.04644e-07
0.00113931
-4.98832e-07
1.12962e-06
1.47317e-07
7.4717e-07
-5.42082e-07
-1.22935e-06
8.14772e-08
-0.0011385
-1.49731e-06
8.1916e-07
4.04853e-07
0.00113895
-4.96024e-07
1.12393e-06
1.44204e-07
7.46975e-07
-5.44861e-07
-1.22932e-06
8.47345e-08
-0.000276535
1.53177e-06
1.49728e-06
-4.76104e-07
-4.81892e-07
0.000274464
-7.98908e-07
-7.99751e-07
-0.00115218
4.25872e-07
4.26243e-07
0.00115293
-0.00114056
-1.49423e-06
7.99336e-07
3.95344e-07
0.00114096
-4.8723e-07
1.13535e-06
1.53784e-07
7.54479e-07
-5.27402e-07
-1.2136e-06
8.97014e-08
-0.0011402
-1.48872e-06
7.99541e-07
3.95403e-07
0.0011406
-4.84419e-07
1.12967e-06
1.50691e-07
7.54292e-07
-5.301e-07
-1.21355e-06
9.28718e-08
-0.00027655
1.52325e-06
1.48872e-06
-4.63433e-07
-4.69187e-07
0.000274471
-7.78878e-07
-7.7979e-07
-0.00115513
4.1823e-07
4.18614e-07
0.00115585
-0.00114207
-1.48474e-06
7.79605e-07
3.85572e-07
0.00114241
-4.75718e-07
1.14071e-06
1.6017e-07
7.61759e-07
-5.12793e-07
-1.19758e-06
9.78767e-08
-0.00114171
-1.47918e-06
7.79593e-07
3.85785e-07
0.00114205
-4.72934e-07
1.1351e-06
1.57085e-07
7.61526e-07
-5.15349e-07
-1.19753e-06
1.01028e-07
-0.000276505
1.5138e-06
1.47929e-06
-4.50428e-07
-4.5611e-07
0.000274419
-7.58016e-07
-7.58921e-07
-0.00115798
4.09989e-07
4.10427e-07
0.00115868
-0.00114338
-1.47453e-06
7.58617e-07
3.76484e-07
0.00114367
-4.64125e-07
1.14591e-06
1.66392e-07
7.69032e-07
-4.98445e-07
-1.18136e-06
1.06022e-07
-0.00114301
-1.46901e-06
7.58674e-07
3.76487e-07
0.00114331
-4.61299e-07
1.14024e-06
1.6335e-07
7.68886e-07
-5.01036e-07
-1.1812e-06
1.09114e-07
-0.000276406
1.50357e-06
1.4691e-06
-4.37336e-07
-4.42966e-07
0.000274313
-7.36592e-07
-7.37478e-07
-0.00116073
4.01568e-07
4.02093e-07
0.0011614
-0.00114449
-1.46365e-06
7.37444e-07
3.67002e-07
0.00114473
-4.52728e-07
1.15103e-06
1.72242e-07
7.7624e-07
-4.84206e-07
-1.16509e-06
1.14076e-07
-0.00114412
-1.45809e-06
7.37199e-07
3.66997e-07
0.00114437
-4.49948e-07
1.14551e-06
1.69255e-07
7.76141e-07
-4.86848e-07
-1.16492e-06
1.17145e-07
-0.000276259
1.49265e-06
1.45821e-06
-4.24221e-07
-4.29826e-07
0.000274162
-7.14515e-07
-7.15296e-07
-0.00116337
3.92853e-07
3.93423e-07
0.00116402
-0.00114541
-1.45214e-06
7.15207e-07
3.57472e-07
0.00114561
-4.41554e-07
1.1563e-06
1.78105e-07
7.83335e-07
-4.70335e-07
-1.149e-06
1.21931e-07
-0.00114504
-1.44656e-06
7.15052e-07
3.57226e-07
0.00114524
-4.38707e-07
1.15076e-06
1.75173e-07
7.83282e-07
-4.72936e-07
-1.14881e-06
1.25051e-07
-0.000276074
1.48112e-06
1.44671e-06
-4.1123e-07
-4.16717e-07
0.000273974
-6.91868e-07
-6.92554e-07
-0.0011659
3.84009e-07
3.84604e-07
0.00116652
-0.00114614
-1.44016e-06
6.925e-07
3.46909e-07
0.0011463
-4.30577e-07
1.16173e-06
1.83908e-07
7.90368e-07
-4.56801e-07
-1.13314e-06
1.29692e-07
-0.00114577
-1.43445e-06
6.92241e-07
3.46476e-07
0.00114593
-4.2774e-07
1.15615e-06
1.81032e-07
7.90293e-07
-4.59346e-07
-1.13294e-06
1.32791e-07
-0.000275858
1.46908e-06
1.43467e-06
-3.98292e-07
-4.03855e-07
0.000273756
-6.68552e-07
-6.6931e-07
-0.00116833
3.75006e-07
3.75549e-07
0.00116891
-0.0011467
-1.42792e-06
6.69102e-07
3.35502e-07
0.00114681
-4.19785e-07
1.16699e-06
1.89683e-07
7.97276e-07
-4.43543e-07
-1.11759e-06
1.37354e-07
-0.00114633
-1.42226e-06
6.68892e-07
3.35263e-07
0.00114644
-4.16936e-07
1.16143e-06
1.86782e-07
7.97189e-07
-4.4613e-07
-1.11743e-06
1.404e-07
-0.000275619
1.45686e-06
1.4224e-06
-3.85753e-07
-3.913e-07
0.000273517
-6.44633e-07
-6.45452e-07
-0.00117063
3.65758e-07
3.66263e-07
0.00117119
-0.00114709
-1.41553e-06
6.45129e-07
3.23531e-07
0.00114716
-4.0924e-07
1.17225e-06
1.95301e-07
8.03937e-07
-4.3063e-07
-1.10249e-06
1.44802e-07
-0.00114672
-1.40994e-06
6.44984e-07
3.23248e-07
0.00114679
-4.06405e-07
1.16677e-06
1.92405e-07
8.03876e-07
-4.33257e-07
-1.10232e-06
1.47876e-07
-0.000275364
1.44462e-06
1.41012e-06
-3.73646e-07
-3.79228e-07
0.000273262
-6.20036e-07
-6.20984e-07
-0.00117282
3.56349e-07
3.56739e-07
0.00117335
-0.00114732
-1.4033e-06
6.20563e-07
3.10679e-07
0.00114736
-3.9892e-07
1.17749e-06
2.00837e-07
8.10413e-07
-4.18213e-07
-1.08788e-06
1.52176e-07
-0.00114696
-1.39774e-06
6.20488e-07
3.10735e-07
0.00114699
-3.9614e-07
1.17197e-06
1.979e-07
8.10239e-07
-4.20844e-07
-1.08774e-06
1.55116e-07
-0.000275099
1.43228e-06
1.3978e-06
-3.61929e-07
-3.67505e-07
0.000272998
-5.95156e-07
-5.96141e-07
-0.00117488
3.46905e-07
3.47205e-07
0.00117538
-0.00114742
-1.3911e-06
5.95602e-07
2.97106e-07
0.00114742
-3.88996e-07
1.18266e-06
2.06249e-07
8.16601e-07
-4.06212e-07
-1.07381e-06
1.59213e-07
-0.00114705
-1.38555e-06
5.9556e-07
2.97052e-07
0.00114705
-3.86192e-07
1.17705e-06
2.03312e-07
8.16573e-07
-4.0884e-07
-1.07355e-06
1.62148e-07
-0.000274829
1.42016e-06
1.38563e-06
-3.50711e-07
-3.56311e-07
0.00027273
-5.69885e-07
-5.71122e-07
-0.00117683
3.37527e-07
3.37675e-07
0.00117729
-0.00114738
-1.37924e-06
5.70426e-07
2.82553e-07
0.00114736
-3.79306e-07
1.18761e-06
2.11484e-07
8.22584e-07
-3.94667e-07
-1.06021e-06
1.66041e-07
-0.00114701
-1.37371e-06
5.70476e-07
2.82709e-07
0.00114699
-3.76565e-07
1.182e-06
2.08463e-07
8.2247e-07
-3.97265e-07
-1.06018e-06
1.68997e-07
-0.000274558
1.40833e-06
1.37377e-06
-3.40007e-07
-3.45637e-07
0.000272461
-5.44449e-07
-5.45712e-07
-0.00117864
3.28106e-07
3.28157e-07
0.00117908
-0.00114723
-1.3677e-06
5.45102e-07
2.67394e-07
0.00114718
-3.69958e-07
1.19237e-06
2.16565e-07
8.28309e-07
-3.83546e-07
-1.04739e-06
1.72643e-07
-0.00114686
-1.36224e-06
5.45166e-07
2.67642e-07
0.00114681
-3.67254e-07
1.18668e-06
2.13571e-07
8.28161e-07
-3.86173e-07
-1.0473e-06
1.75542e-07
-0.000274289
1.39676e-06
1.36224e-06
-3.29824e-07
-3.35458e-07
0.000272195
-5.18802e-07
-5.20214e-07
-0.00118033
3.18659e-07
3.18671e-07
0.00118073
-0.00114698
-1.35657e-06
5.1968e-07
2.51598e-07
0.0011469
-3.60976e-07
1.19681e-06
2.21437e-07
8.33839e-07
-3.72978e-07
-1.0351e-06
1.78927e-07
-0.00114661
-1.35108e-06
5.19624e-07
2.51973e-07
0.00114653
-3.58298e-07
1.19116e-06
2.18457e-07
8.33601e-07
-3.75598e-07
-1.03495e-06
1.81803e-07
-0.000274026
1.38568e-06
1.35116e-06
-3.20221e-07
-3.25894e-07
0.000271935
-4.93105e-07
-4.94396e-07
-0.00118189
3.09128e-07
3.09187e-07
0.00118226
-0.00114664
-1.3459e-06
4.94075e-07
2.35595e-07
0.00114655
-3.52373e-07
1.20089e-06
2.261e-07
8.3904e-07
-3.62862e-07
-1.02321e-06
1.84863e-07
-0.00114627
-1.34039e-06
4.93969e-07
2.35788e-07
0.00114618
-3.49696e-07
1.19537e-06
2.23124e-07
8.3889e-07
-3.65482e-07
-1.02321e-06
1.87787e-07
-0.000273769
1.37491e-06
1.34041e-06
-3.11088e-07
-3.16702e-07
0.000271681
-4.67332e-07
-4.68539e-07
-0.00118332
2.99514e-07
2.99603e-07
0.00118365
-0.00114623
-1.33564e-06
4.68355e-07
2.19199e-07
0.00114612
-3.44233e-07
1.20489e-06
2.30448e-07
8.44033e-07
-3.53169e-07
-1.01207e-06
1.90576e-07
-0.00114586
-1.33019e-06
4.68179e-07
2.19352e-07
0.00114575
-3.41447e-07
1.19928e-06
2.27552e-07
8.4394e-07
-3.55766e-07
-1.01196e-06
1.93439e-07
-0.000273519
1.3646e-06
1.33014e-06
-3.02449e-07
-3.08024e-07
0.000271435
-4.41519e-07
-4.42458e-07
-0.00118461
2.89686e-07
2.89871e-07
0.00118492
-0.00114576
-1.32591e-06
4.42446e-07
2.02811e-07
0.00114564
-3.36426e-07
1.20855e-06
2.34587e-07
8.48761e-07
-3.43924e-07
-1.00147e-06
1.96033e-07
-0.00114539
-1.32039e-06
4.42248e-07
2.02814e-07
0.00114527
-3.33627e-07
1.20299e-06
2.3176e-07
8.4867e-07
-3.46513e-07
-1.00127e-06
1.98865e-07
-0.000273278
1.35484e-06
1.32042e-06
-2.94379e-07
-2.99916e-07
0.000271197
-4.15692e-07
-4.16311e-07
-0.00118578
2.79592e-07
2.79899e-07
0.00118606
-0.00114525
-1.3166e-06
4.16386e-07
1.86655e-07
0.00114511
-3.29052e-07
1.21186e-06
2.38535e-07
8.53236e-07
-3.35116e-07
-9.91372e-07
2.0116e-07
-0.00114487
-1.31108e-06
4.16237e-07
1.865e-07
0.00114474
-3.26168e-07
1.20632e-06
2.35751e-07
8.53052e-07
-3.37718e-07
-9.91163e-07
2.03976e-07
-0.000273047
1.34552e-06
1.31114e-06
-2.8677e-07
-2.92267e-07
0.000270969
-3.89843e-07
-4.01672e-07
-0.00118682
2.69209e-07
2.69597e-07
0.00118707
-0.00114469
-1.30784e-06
3.90391e-07
1.70523e-07
0.00114455
-3.21941e-07
1.21501e-06
2.42125e-07
8.57447e-07
-3.26697e-07
-9.81767e-07
2.06085e-07
-0.00114432
-1.30221e-06
3.90174e-07
1.7037e-07
0.00114417
-3.1913e-07
1.20952e-06
2.39399e-07
8.57329e-07
-3.29351e-07
-9.81626e-07
2.08872e-07
-0.000272825
1.33669e-06
1.30237e-06
-2.79627e-07
-2.851e-07
0.000270751
-3.63972e-07
-3.6414e-07
-0.00118775
2.58356e-07
2.58914e-07
0.00118796
-0.00114411
-1.29954e-06
3.64426e-07
1.54995e-07
0.00114396
-3.12578e-07
1.21785e-06
2.42659e-07
8.61462e-07
-3.18689e-07
-9.72679e-07
2.10716e-07
-0.00114374
-1.29397e-06
3.64304e-07
1.54646e-07
0.00114359
-3.12465e-07
1.21239e-06
2.42814e-07
8.61338e-07
-3.21352e-07
-9.72548e-07
2.13534e-07
-0.000272613
1.32828e-06
1.29401e-06
-2.72885e-07
-2.78318e-07
0.000270542
-3.38228e-07
-3.38279e-07
-0.00118855
2.4729e-07
2.47891e-07
0.00118873
-0.00114351
-1.2917e-06
3.38556e-07
1.39874e-07
0.00114336
-3.06296e-07
1.22048e-06
2.45878e-07
8.65225e-07
-3.11075e-07
-9.6409e-07
2.15055e-07
-0.00114314
-1.28605e-06
3.38386e-07
1.39488e-07
0.00114298
-3.06228e-07
1.21502e-06
2.45977e-07
8.65109e-07
-3.13805e-07
-9.63997e-07
2.17894e-07
-0.00027241
1.3204e-06
1.28618e-06
-2.6666e-07
-2.7201e-07
0.000270342
-3.12644e-07
-3.12597e-07
-0.00118923
2.35747e-07
2.36425e-07
0.00118939
-0.0011429
-1.28425e-06
3.12893e-07
1.25363e-07
0.00114274
-3.00448e-07
1.22289e-06
2.48737e-07
8.6882e-07
-3.03928e-07
-9.55954e-07
2.19217e-07
-0.00114253
-1.27867e-06
3.12744e-07
1.25024e-07
0.00114237
-3.00389e-07
1.2174e-06
2.48812e-07
8.68665e-07
-3.06635e-07
-9.55809e-07
2.21972e-07
-0.000272217
1.31302e-06
1.27883e-06
-2.60856e-07
-2.66191e-07
0.000270152
-2.87373e-07
-2.87339e-07
-0.0011898
2.23876e-07
2.24566e-07
0.00118993
-0.00114228
-1.27731e-06
2.87532e-07
1.11642e-07
0.00114213
-2.94945e-07
1.22501e-06
2.51406e-07
8.72196e-07
-2.9713e-07
-9.48266e-07
2.23078e-07
-0.00114191
-1.27175e-06
2.87319e-07
1.11247e-07
0.00114176
-2.94925e-07
1.21955e-06
2.51444e-07
8.72051e-07
-2.99807e-07
-9.48162e-07
2.25879e-07
-0.000272034
1.30592e-06
1.27179e-06
-2.55378e-07
-2.60666e-07
0.000269973
-2.62415e-07
-2.62374e-07
-0.00119027
2.11562e-07
2.1223e-07
0.00119037
-0.00114167
-1.2708e-06
2.62517e-07
9.87484e-08
0.00114152
-2.89813e-07
1.22693e-06
2.53831e-07
8.75352e-07
-2.90763e-07
-9.41026e-07
2.26715e-07
-0.0011413
-1.2653e-06
2.62239e-07
9.84504e-08
0.00114115
-2.89827e-07
1.22145e-06
2.53841e-07
8.75201e-07
-2.93409e-07
-9.40916e-07
2.29504e-07
-0.000271861
1.29947e-06
1.26537e-06
-2.50418e-07
-2.55699e-07
0.000269802
-2.37754e-07
-2.37746e-07
-0.00119064
1.98798e-07
1.99368e-07
0.00119072
-0.00114107
-1.26471e-06
2.37876e-07
8.6699e-08
0.00114092
-2.8508e-07
1.22869e-06
2.55969e-07
8.78261e-07
-2.84696e-07
-9.34232e-07
2.30107e-07
-0.0011407
-1.25923e-06
2.37517e-07
8.64278e-08
0.00114055
-2.85042e-07
1.22319e-06
2.56017e-07
8.78185e-07
-2.87348e-07
-9.3408e-07
2.32908e-07
-0.000271698
1.29332e-06
1.25924e-06
-2.45747e-07
-2.51034e-07
0.000269642
5.2258e-06
5.2368e-06
0.000260566
-0.000259153
-5.94519e-06
-5.93095e-06
5.05359e-06
0.000261439
-0.000258684
-5.96344e-06
3.381e-06
-5.22548e-06
5.0484e-06
0.000261472
-0.000258699
-5.97143e-06
3.37594e-06
5.22637e-06
0.000260579
-0.000259155
-5.91648e-06
-5.95885e-06
5.04657e-06
0.000261503
-0.000258715
-5.9689e-06
3.37097e-06
5.05313e-06
-5.22796e-06
0.000261446
-0.000258684
3.38587e-06
-5.97321e-06
1.06918e-05
1.05984e-05
-0.000252646
-0.000256096
-0.000255126
-0.000255126
-6.41906e-06
-4.11046e-06
-6.65454e-06
-6.4194e-06
-4.11126e-06
-6.66001e-06
-5.04125e-06
0.0010422
1.06511e-05
1.06033e-05
-0.000252649
-0.000256094
-0.000255129
-0.000255129
-6.42165e-06
-4.1107e-06
-6.65723e-06
-6.41666e-06
-4.10604e-06
-6.65228e-06
-5.04097e-06
0.00104208
1.0711e-05
1.06635e-05
-0.000252641
-0.000256089
-0.000255126
-0.000255121
-6.42126e-06
-4.11781e-06
-6.65691e-06
-6.42144e-06
-4.10815e-06
-6.65451e-06
-5.05584e-06
-5.04388e-06
0.00104214
1.07067e-05
1.06083e-05
-0.000252644
-0.000256091
-0.000255126
-0.000255126
-6.41635e-06
-4.11307e-06
-6.65213e-06
-6.42166e-06
-4.11108e-06
-6.65732e-06
-0.000258709
-5.9606e-06
3.36561e-06
-5.22557e-06
0.000261433
-0.000258681
3.38085e-06
-5.96308e-06
5.22859e-06
0.000260558
-0.00025914
-5.91848e-06
-5.95654e-06
-0.000258694
3.37315e-06
-5.95809e-06
-5.23659e-06
0.0002615
-0.000258709
3.3683e-06
-5.96624e-06
-0.00025915
-5.94474e-06
-5.93089e-06
5.66017e-06
5.69755e-06
-4.95459e-06
-4.94835e-06
0.000259112
-8.12208e-07
-7.76708e-07
0.000261577
-0.000259443
-2.75807e-07
-2.68567e-07
7.14192e-06
0.00105866
-4.59157e-06
-1.55087e-06
-2.11637e-06
-2.4921e-06
-6.63895e-06
-7.12109e-06
-2.99294e-06
-0.000263293
-0.000259718
-0.00026282
-5.6702e-06
1.46052e-05
7.08079e-06
0.00105903
-4.60969e-06
-1.54322e-06
-2.11907e-06
-2.50305e-06
-6.67037e-06
-7.13829e-06
-3.00877e-06
-0.000263368
-0.000259749
-0.000262861
0.00106199
2.12351e-06
-0.00106095
1.04451e-06
-1.75888e-06
-1.32071e-07
-7.46999e-07
-1.54212e-06
-2.91738e-07
-9.12509e-07
3.64066e-07
8.20401e-07
0.00106241
2.12419e-06
-0.00106137
1.03981e-06
-1.76913e-06
-1.24895e-07
-7.52346e-07
-1.54799e-06
-2.92082e-07
-9.13085e-07
3.69236e-07
-4.95247e-06
-4.94448e-06
0.000259121
-7.79457e-07
0.000261602
-0.000259464
-2.73027e-07
-2.6557e-07
6.86491e-06
0.0010595
-4.61593e-06
-1.6111e-06
-2.13281e-06
-2.50086e-06
-6.65292e-06
-7.13327e-06
-3.00382e-06
-0.000263388
-0.000259777
-0.000262874
-5.67016e-06
1.46378e-05
7.17428e-06
0.0010588
-4.61025e-06
-1.55335e-06
-2.12431e-06
-2.50354e-06
-6.66903e-06
-7.13568e-06
-3.00748e-06
-0.000259718
-0.000263344
-0.000262832
0.00106301
2.13152e-06
-0.00106195
1.03292e-06
-1.72919e-06
-1.34374e-07
-7.47471e-07
-1.54547e-06
-2.91961e-07
-9.10509e-07
3.66108e-07
8.09664e-07
0.0010621
2.13387e-06
-0.00106108
1.0548e-06
-1.75898e-06
-1.29759e-07
-7.47294e-07
-1.54516e-06
-2.891e-07
-9.14945e-07
3.63815e-07
1.46372e-05
7.16214e-06
0.00105861
-4.59118e-06
-1.55075e-06
-2.11358e-06
-2.49223e-06
-6.63914e-06
-2.99332e-06
-7.11899e-06
-0.000259713
-0.000263288
-0.000262815
2.13059e-06
-0.0010617
1.03785e-06
-1.72895e-06
-1.31706e-07
-7.44287e-07
-1.5429e-06
-2.94251e-07
3.60876e-07
-9.10201e-07
8.09831e-07
0.00106189
2.13434e-06
-0.00106087
1.05487e-06
-1.75868e-06
-1.2962e-07
-7.46947e-07
-1.54504e-06
-2.91952e-07
-9.12731e-07
3.66283e-07
-4.95702e-06
-4.94466e-06
0.000259101
-7.7149e-07
0.000261554
-0.000259425
-2.76011e-07
-2.71088e-07
1.45377e-05
6.88248e-06
0.00105945
-4.61565e-06
-1.61089e-06
-2.13259e-06
-2.50078e-06
-6.65275e-06
-3.00374e-06
-7.13047e-06
-0.000259766
-0.000263385
-0.000262869
2.13649e-06
-0.0010614
1.05315e-06
-1.72635e-06
-1.34047e-07
-7.46833e-07
-1.53994e-06
-2.89757e-07
3.60763e-07
-9.13186e-07
7.71153e-07
0.00106292
2.13623e-06
-0.00106188
1.0429e-06
-1.72433e-06
-1.34568e-07
-7.45002e-07
-1.5424e-06
-2.91646e-07
-9.12852e-07
3.61488e-07
-0.000259441
-2.73556e-07
-2.71067e-07
1.65121e-06
1.61608e-06
-6.95598e-07
-7.04075e-07
0.000259709
-9.07068e-07
-8.68862e-07
0.000262816
-0.00026065
-1.98513e-07
-1.9152e-07
8.32458e-07
0.00106318
-6.82719e-07
8.67719e-07
-9.49281e-08
4.23842e-07
-8.49857e-07
-1.43353e-06
-2.54325e-07
-1.65619e-06
1.65326e-06
8.27584e-07
0.00106361
-6.85408e-07
8.75954e-07
-9.4766e-08
4.28703e-07
-8.53097e-07
-1.43963e-06
-2.52421e-07
0.00106712
1.38954e-06
-0.00106578
6.9976e-07
-1.60539e-06
-7.01898e-08
-6.63414e-07
-1.39314e-06
-2.25841e-07
-8.34421e-07
4.5983e-07
9.1278e-07
0.00106755
1.39063e-06
-0.00106621
6.95141e-07
-1.61023e-06
-6.99356e-08
-6.63246e-07
-1.3972e-06
-2.26539e-07
-8.35405e-07
4.61588e-07
-6.9606e-07
-7.03235e-07
0.000259727
-8.74121e-07
0.000262842
-0.000260663
-1.98545e-07
-1.93565e-07
8.26202e-07
0.0010642
-6.80375e-07
8.32386e-07
-9.69757e-08
4.25648e-07
-8.53198e-07
-1.43727e-06
-2.52344e-07
-1.65117e-06
1.65785e-06
8.32272e-07
0.00106329
-6.85572e-07
8.67884e-07
-9.48896e-08
4.23601e-07
-8.52531e-07
-1.43407e-06
-2.52024e-07
0.00106815
1.39114e-06
-0.00106682
6.99446e-07
-1.5676e-06
-7.44018e-08
-6.58436e-07
-1.39148e-06
-2.23962e-07
-8.35351e-07
4.62132e-07
9.02042e-07
0.00106723
1.38872e-06
-0.00106589
6.99434e-07
-1.60263e-06
-7.23136e-08
-6.63482e-07
-1.39299e-06
-2.25664e-07
-8.3433e-07
4.62996e-07
1.65325e-06
8.32608e-07
0.00106309
-6.8528e-07
8.65442e-07
-9.69676e-08
4.23308e-07
-8.52921e-07
-2.52188e-07
-1.43419e-06
1.39057e-06
-0.00106655
7.04056e-07
-1.57532e-06
-7.63915e-08
-6.58104e-07
-1.39128e-06
-2.23969e-07
4.61907e-07
-8.35085e-07
9.04906e-07
0.00106703
1.38481e-06
-0.00106568
6.99636e-07
-1.60229e-06
-7.19741e-08
-6.6302e-07
-1.39401e-06
-2.26272e-07
-8.35024e-07
4.59174e-07
-6.9872e-07
-7.00976e-07
0.000259689
-8.6629e-07
0.00026279
-0.000260629
-1.98547e-07
-1.93739e-07
1.65403e-06
8.20764e-07
0.00106413
-6.80703e-07
8.26716e-07
-1.01834e-07
4.21099e-07
-8.50236e-07
-2.56807e-07
-1.43127e-06
1.39074e-06
-0.00106622
6.98757e-07
-1.56473e-06
-7.63629e-08
-6.58005e-07
-1.38573e-06
-2.26302e-07
4.539e-07
-8.35061e-07
8.68648e-07
0.00106806
1.39045e-06
-0.00106672
6.98762e-07
-1.56519e-06
-7.66836e-08
-6.5859e-07
-1.39355e-06
-2.25957e-07
-8.37536e-07
4.59802e-07
-0.000260637
-1.98705e-07
-1.93592e-07
1.60518e-06
1.57263e-06
-6.60784e-07
-6.69366e-07
0.000260968
-9.27963e-07
-8.92046e-07
0.000264096
-0.000261921
-1.79712e-07
-1.74987e-07
6.9135e-07
0.00106846
-6.65104e-07
9.11563e-07
-6.69504e-08
4.62114e-07
-8.34236e-07
-1.39324e-06
-2.23376e-07
-1.61009e-06
1.37616e-06
7.02528e-07
0.00106889
-6.64907e-07
9.1727e-07
-6.66637e-08
4.66707e-07
-8.37787e-07
-1.39984e-06
-2.19277e-07
0.00107247
1.35917e-06
-0.00107114
6.74448e-07
-1.60626e-06
-5.599e-08
-6.59026e-07
-1.4029e-06
-2.04036e-07
-8.28539e-07
4.7185e-07
9.33578e-07
0.00107289
1.36016e-06
-0.00107157
6.75384e-07
-1.6113e-06
-5.37555e-08
-6.61581e-07
-1.41166e-06
-1.99783e-07
-8.34516e-07
4.79655e-07
-6.63828e-07
-6.65832e-07
0.000260989
-8.94873e-07
0.000264124
-0.000261947
-1.76974e-07
-1.72013e-07
6.91145e-07
0.0010695
-6.62868e-07
8.75823e-07
-7.12209e-08
4.64627e-07
-8.37601e-07
-1.39912e-06
-2.19011e-07
-1.60241e-06
1.37421e-06
6.96535e-07
0.00106857
-6.65127e-07
9.09181e-07
-6.68388e-08
4.65276e-07
-8.36585e-07
-1.39561e-06
-2.18336e-07
0.0010735
1.36077e-06
-0.00107217
6.7395e-07
-1.57107e-06
-5.81295e-08
-6.56829e-07
-1.4059e-06
-1.99538e-07
-8.34298e-07
4.74489e-07
9.28355e-07
0.00107257
1.35933e-06
-0.00107124
6.74598e-07
-1.60596e-06
-5.3712e-08
-6.61535e-07
-1.40575e-06
-1.99292e-07
-8.33702e-07
4.74293e-07
1.38055e-06
6.91142e-07
0.00106837
-6.62047e-07
9.06771e-07
-7.08453e-08
4.6413e-07
-8.37407e-07
-2.21395e-07
-1.39672e-06
1.36054e-06
-0.00107191
6.73768e-07
-1.57348e-06
-5.77954e-08
-6.5632e-07
-1.40345e-06
-2.02116e-07
4.71451e-07
-8.31743e-07
9.23026e-07
0.00107237
1.35961e-06
-0.00107105
6.74361e-07
-1.60067e-06
-5.77593e-08
-6.55996e-07
-1.40353e-06
-2.02036e-07
-8.31645e-07
4.7141e-07
-6.63603e-07
-6.6859e-07
0.000260953
-8.89551e-07
0.000264075
-0.000261905
-1.79527e-07
-1.72008e-07
1.37571e-06
6.95631e-07
0.0010694
-6.57652e-07
8.67864e-07
-7.55414e-08
4.62148e-07
-8.34647e-07
-2.2107e-07
-1.39367e-06
1.36003e-06
-0.00107157
6.7358e-07
-1.56813e-06
-5.98517e-08
-6.53592e-07
-1.40312e-06
-1.99598e-07
4.71515e-07
-8.34184e-07
8.89344e-07
0.00107341
1.36011e-06
-0.00107208
6.73752e-07
-1.56852e-06
-6.01528e-08
-6.54178e-07
-1.40075e-06
-2.01729e-07
-8.31508e-07
4.69182e-07
-0.000261919
-1.77301e-07
-1.7202e-07
1.60506e-06
1.56981e-06
-6.52988e-07
-6.58882e-07