/*--------------------------------*- C++ -*----------------------------------*\
| =========                 |                                                 |
| \\      /  F ield         | OpenFOAM: The Open Source CFD Toolbox           |
|  \\    /   O peration     | Version:  v2012                                 |
|   \\  /    A nd           | Website:  www.openfoam.com                      |
|    \\/     M anipulation  |                                                 |
\*---------------------------------------------------------------------------*/
FoamFile
{
    version     2.0;
    format      ascii;
    class       volVectorField;
    location    "300";
    object      U;
}
// * * * * * * * * * * * * * * * * * * * * * * * * * * * * * * * * * * * * * //

dimensions      [0 1 -1 0 0 0 0];


internalField   nonuniform List<vector> 
85864
(
(0.000106289 0.000106306 0.100294)
(-0.000185165 0.000115642 0.10039)
(0.000115712 -0.000185208 0.10039)
(-0.000247968 -0.000247986 0.100399)
(9.72253e-05 9.71539e-05 0.100854)
(-0.000151509 9.36258e-05 0.100939)
(9.35895e-05 -0.00015155 0.100939)
(-0.000194486 -0.000194336 0.100971)
(9.70766e-05 9.7072e-05 0.101369)
(-0.000152278 9.09492e-05 0.101448)
(9.09199e-05 -0.000152318 0.101448)
(-0.000194839 -0.000194718 0.101475)
(9.48191e-05 9.48097e-05 0.101886)
(-0.000149315 8.71761e-05 0.101954)
(8.71863e-05 -0.00014927 0.101954)
(-0.000192217 -0.000192135 0.101968)
(9.14033e-05 9.13781e-05 0.102391)
(-0.00014368 8.24428e-05 0.102442)
(8.24697e-05 -0.000143611 0.102442)
(-0.000187015 -0.000186992 0.102436)
(8.79115e-05 8.79085e-05 0.102877)
(-0.000137771 7.83894e-05 0.102907)
(7.83592e-05 -0.000137743 0.102907)
(-0.000181604 -0.000181592 0.102875)
(8.47908e-05 8.4787e-05 0.103344)
(-0.000132346 7.51051e-05 0.103349)
(7.5099e-05 -0.000132333 0.103349)
(-0.000176934 -0.000176913 0.103285)
(8.21507e-05 8.21059e-05 0.103793)
(-0.000127605 7.25269e-05 0.103768)
(7.25522e-05 -0.000127569 0.103768)
(-0.00017314 -0.000173161 0.103668)
(7.99021e-05 7.98216e-05 0.104226)
(-0.000123501 7.05415e-05 0.104168)
(7.05972e-05 -0.000123457 0.104168)
(-0.00017019 -0.000170255 0.104027)
(7.79404e-05 7.78448e-05 0.104646)
(-0.000119979 6.92311e-05 0.104551)
(6.92059e-05 -0.000119929 0.104551)
(-0.000168065 -0.000168083 0.104363)
(7.61661e-05 7.611e-05 0.105053)
(-0.000116841 6.81629e-05 0.104917)
(6.8155e-05 -0.000116789 0.104917)
(-0.00016654 -0.00016654 0.104678)
(7.45689e-05 7.45282e-05 0.10545)
(-0.000113903 6.71449e-05 0.105269)
(6.71397e-05 -0.000113835 0.105269)
(-0.000165215 -0.000165213 0.104972)
(7.30878e-05 7.30464e-05 0.105837)
(-0.000111232 6.61318e-05 0.105607)
(6.61508e-05 -0.000111208 0.105607)
(-0.000164063 -0.000164119 0.105246)
(7.16335e-05 7.15849e-05 0.106214)
(-0.000108758 6.50527e-05 0.10593)
(6.50832e-05 -0.000108728 0.10593)
(-0.00016303 -0.00016302 0.105498)
(7.02176e-05 7.01583e-05 0.106581)
(-0.000106326 6.40102e-05 0.106239)
(6.40284e-05 -0.000106288 0.106239)
(-0.000161783 -0.00016173 0.105728)
(6.88151e-05 6.87585e-05 0.10694)
(-0.00010394 6.30114e-05 0.106534)
(6.30256e-05 -0.0001039 0.106534)
(-0.000160266 -0.000160272 0.105935)
(6.74247e-05 6.7384e-05 0.10729)
(-0.000101595 6.20029e-05 0.106813)
(6.20115e-05 -0.000101561 0.106813)
(-0.000158631 -0.000158675 0.106117)
(6.60842e-05 6.60738e-05 0.107631)
(-9.93099e-05 6.09996e-05 0.107077)
(6.10296e-05 -9.93846e-05 0.107077)
(-0.000156809 -0.000156875 0.106274)
(6.47814e-05 6.48017e-05 0.107963)
(-9.73241e-05 6.00593e-05 0.107325)
(6.00768e-05 -9.74153e-05 0.107325)
(-0.000154742 -0.000154815 0.106405)
(6.35108e-05 6.35375e-05 0.108287)
(-9.54613e-05 5.90774e-05 0.107556)
(5.91043e-05 -9.55412e-05 0.107556)
(-0.000152315 -0.00015238 0.106509)
(6.22656e-05 6.22979e-05 0.108602)
(-9.36231e-05 5.8069e-05 0.10777)
(5.80644e-05 -9.37045e-05 0.10777)
(-0.00014946 -0.000149522 0.106585)
(6.10505e-05 6.10593e-05 0.108908)
(-9.16913e-05 5.69072e-05 0.107966)
(5.69369e-05 -9.17856e-05 0.107966)
(-0.000146103 -0.000146166 0.106635)
(5.98046e-05 5.98093e-05 0.109206)
(-8.95897e-05 5.57159e-05 0.108144)
(5.57437e-05 -8.97123e-05 0.108144)
(-0.000142208 -0.000142265 0.106658)
(5.85573e-05 5.85433e-05 0.109494)
(-8.73478e-05 5.45004e-05 0.108303)
(5.45044e-05 -8.7435e-05 0.108303)
(-0.000137933 -0.000137991 0.106657)
(5.73032e-05 5.72903e-05 0.109773)
(-8.49667e-05 5.3242e-05 0.108444)
(5.3212e-05 -8.50481e-05 0.108443)
(-0.000133319 -0.000133359 0.106633)
(5.59892e-05 5.59721e-05 0.110042)
(-8.24398e-05 5.19295e-05 0.108565)
(5.18906e-05 -8.24901e-05 0.108565)
(-0.00012847 -0.000128489 0.10659)
(5.46232e-05 5.4614e-05 0.110302)
(-7.97747e-05 5.05245e-05 0.108669)
(5.04845e-05 -7.98104e-05 0.108668)
(-0.000123411 -0.000123421 0.106529)
(5.32126e-05 5.32095e-05 0.110552)
(-7.69422e-05 4.89832e-05 0.108754)
(4.89279e-05 -7.69644e-05 0.108753)
(-0.00011821 -0.000118199 0.106455)
(5.17796e-05 5.17814e-05 0.110791)
(-7.39781e-05 4.72882e-05 0.108821)
(4.72377e-05 -7.39873e-05 0.108821)
(-0.000112881 -0.000112874 0.106369)
(5.03313e-05 5.03242e-05 0.11102)
(-7.08811e-05 4.54844e-05 0.108872)
(4.54347e-05 -7.08944e-05 0.108872)
(-0.000107589 -0.000107598 0.106275)
(4.8866e-05 4.88582e-05 0.111237)
(-6.76923e-05 4.35778e-05 0.108907)
(4.35323e-05 -6.77064e-05 0.108907)
(-0.000102407 -0.000102441 0.106176)
(4.73828e-05 4.73679e-05 0.111444)
(-6.44419e-05 4.15659e-05 0.108928)
(4.15357e-05 -6.44712e-05 0.108927)
(-9.73007e-05 -9.7339e-05 0.106074)
(4.59125e-05 4.58841e-05 0.111638)
(-6.11604e-05 3.94813e-05 0.108935)
(3.94586e-05 -6.11841e-05 0.108934)
(-9.23591e-05 -9.24183e-05 0.10597)
(4.44433e-05 4.43931e-05 0.111821)
(-5.7864e-05 3.73144e-05 0.10893)
(3.73062e-05 -5.78912e-05 0.10893)
(-8.7643e-05 -8.77149e-05 0.105866)
(4.29708e-05 4.29184e-05 0.111992)
(-5.45795e-05 3.50944e-05 0.108915)
(3.51023e-05 -5.46057e-05 0.108914)
(-8.31333e-05 -8.31991e-05 0.105764)
(4.15107e-05 4.14591e-05 0.112151)
(-5.13369e-05 3.28434e-05 0.10889)
(3.28672e-05 -5.13468e-05 0.108889)
(-7.88797e-05 -7.89553e-05 0.105664)
(4.00475e-05 3.99939e-05 0.112298)
(-4.81274e-05 3.05939e-05 0.108857)
(3.06167e-05 -4.8118e-05 0.108856)
(-7.48121e-05 -7.48848e-05 0.105566)
(3.85696e-05 3.85255e-05 0.112432)
(-4.49385e-05 2.83746e-05 0.108817)
(2.83706e-05 -4.49314e-05 0.108816)
(-7.0982e-05 -7.10425e-05 0.105472)
(3.7075e-05 3.70421e-05 0.112553)
(-4.18056e-05 2.61824e-05 0.108772)
(2.61593e-05 -4.18012e-05 0.108771)
(-6.74244e-05 -6.74789e-05 0.105381)
(3.55565e-05 3.55387e-05 0.112663)
(-3.87341e-05 2.40259e-05 0.108722)
(2.40027e-05 -3.87348e-05 0.108721)
(-6.40629e-05 -6.41082e-05 0.105294)
(3.40113e-05 3.40021e-05 0.112761)
(-3.57306e-05 2.1943e-05 0.108669)
(2.19029e-05 -3.57379e-05 0.108668)
(-6.0934e-05 -6.09654e-05 0.10521)
(3.24218e-05 3.24358e-05 0.112847)
(-3.28101e-05 1.99448e-05 0.108614)
(1.98936e-05 -3.28136e-05 0.108612)
(-5.79722e-05 -5.79898e-05 0.105131)
(3.0814e-05 3.08343e-05 0.112921)
(-2.99691e-05 1.80102e-05 0.108557)
(1.79704e-05 -2.99766e-05 0.108555)
(-5.52339e-05 -5.52404e-05 0.105055)
(2.91679e-05 2.91982e-05 0.112985)
(-2.72156e-05 1.61912e-05 0.108499)
(1.61532e-05 -2.72244e-05 0.108497)
(-5.26971e-05 -5.26956e-05 0.104982)
(2.74973e-05 2.75293e-05 0.113038)
(-2.45576e-05 1.44585e-05 0.10844)
(1.44322e-05 -2.45571e-05 0.108439)
(-5.02604e-05 -5.02418e-05 0.104914)
(2.57928e-05 2.5819e-05 0.113081)
(-2.20021e-05 1.28375e-05 0.108382)
(1.28142e-05 -2.19954e-05 0.108381)
(-4.80869e-05 -4.80641e-05 0.104849)
(2.40716e-05 2.40903e-05 0.113115)
(-1.95496e-05 1.13145e-05 0.108325)
(1.12931e-05 -1.95397e-05 0.108324)
(-4.59982e-05 -4.59795e-05 0.104788)
(0.000138161 0.000138192 0.100281)
(0.000126525 0.000160007 0.100229)
(-0.000126416 0.000159929 0.100229)
(-0.000137928 0.000138069 0.100281)
(0.000160007 0.000126521 0.100229)
(0.000159894 -0.000126442 0.100229)
(9.38265e-05 9.38107e-05 0.100152)
(-9.37698e-05 9.3767e-05 0.100152)
(9.37612e-05 -9.37597e-05 0.100152)
(-9.37994e-05 -9.37926e-05 0.100152)
(-0.000159853 0.000126409 0.100229)
(-0.000159939 -0.000126432 0.100229)
(0.000138 -0.000138073 0.100281)
(0.000126401 -0.000159908 0.100229)
(-0.000126467 -0.000159949 0.100229)
(-0.000138086 -0.000138084 0.100281)
(0.000248042 0.000248118 0.100399)
(0.000112839 0.000112656 0.100897)
(0.000115845 0.000185146 0.10039)
(-0.000115729 0.000185186 0.10039)
(9.32246e-05 0.000149094 0.100817)
(-9.31684e-05 0.000149102 0.100817)
(-0.000247864 0.000247931 0.100398)
(-0.000112705 0.000112582 0.100897)
(0.000185267 0.000115816 0.10039)
(0.00018494 -0.00011577 0.10039)
(0.000149061 9.32141e-05 0.100817)
(0.000149051 -9.3194e-05 0.100817)
(-0.000185228 -0.00011576 0.10039)
(-0.000149029 9.31417e-05 0.100817)
(-0.000149078 -9.31894e-05 0.100817)
(0.000247849 -0.000248002 0.100398)
(0.000112683 -0.000112826 0.100897)
(-0.000115788 -0.000185157 0.10039)
(9.30925e-05 -0.000149105 0.100817)
(-9.31624e-05 -0.000149047 0.100817)
(-0.00011287 -0.000112722 0.100897)
(0.000194495 0.000194239 0.100971)
(0.000105544 0.000105346 0.101399)
(9.36555e-05 0.000151539 0.100939)
(-9.36307e-05 0.000151567 0.100939)
(9.14559e-05 0.000152159 0.101319)
(-9.14069e-05 0.000152251 0.101319)
(-0.000194327 0.000194227 0.100971)
(-0.000105358 0.000105337 0.101399)
(0.000151517 9.3631e-05 0.100939)
(0.000151516 -9.36337e-05 0.100939)
(0.000152152 9.15108e-05 0.101319)
(0.00015205 -9.14397e-05 0.101319)
(-0.000151532 -9.36417e-05 0.100939)
(-0.000152137 9.14589e-05 0.101319)
(-0.000152185 -9.13824e-05 0.101319)
(0.000194299 -0.000194444 0.100971)
(0.000105315 -0.000105461 0.101399)
(-9.36533e-05 -0.000151516 0.100939)
(9.1438e-05 -0.000152189 0.101319)
(-9.148e-05 -0.00015212 0.101319)
(-0.00010547 -0.000105333 0.101399)
(0.000194943 0.000194744 0.101475)
(9.7815e-05 9.77296e-05 0.101896)
(9.09225e-05 0.000152301 0.101448)
(-9.08874e-05 0.000152381 0.101448)
(8.83209e-05 0.000150479 0.101829)
(-8.82841e-05 0.000150521 0.101829)
(-0.000194737 0.000194727 0.101475)
(-9.77005e-05 9.76501e-05 0.101896)
(0.000152278 9.1014e-05 0.101448)
(0.000152168 -9.09063e-05 0.101448)
(0.000150462 8.83993e-05 0.101829)
(0.000150421 -8.82246e-05 0.101829)
(-0.000152326 -9.08698e-05 0.101448)
(-0.000150471 8.83133e-05 0.101829)
(-0.000150521 -8.82759e-05 0.101829)
(0.000194692 -0.000194844 0.101475)
(9.76386e-05 -9.76993e-05 0.101896)
(-9.09931e-05 -0.000152247 0.101448)
(8.83107e-05 -0.000150447 0.101829)
(-8.83866e-05 -0.000150408 0.101829)
(-9.77964e-05 -9.76854e-05 0.101896)
(0.000192266 0.000192151 0.101968)
(8.84656e-05 8.83796e-05 0.10237)
(8.71896e-05 0.000149312 0.101954)
(-8.71677e-05 0.000149349 0.101954)
(8.3613e-05 0.000145142 0.102322)
(-8.36195e-05 0.000145181 0.102322)
(-0.000192145 0.000192095 0.101968)
(-8.84439e-05 8.8357e-05 0.102371)
(0.000149311 8.72439e-05 0.101954)
(0.000149294 -8.70811e-05 0.101954)
(0.000145144 8.3634e-05 0.102322)
(0.000145173 -8.34899e-05 0.102322)
(-0.000149368 -8.7161e-05 0.101954)
(-0.000145174 8.36189e-05 0.102322)
(-0.000145231 -8.36688e-05 0.102322)
(0.000192093 -0.000192127 0.101967)
(8.83727e-05 -8.83667e-05 0.10237)
(-8.72675e-05 -0.000149253 0.101954)
(8.36379e-05 -0.000145096 0.102322)
(-8.37563e-05 -0.000145143 0.102322)
(-8.85457e-05 -8.8481e-05 0.102371)
(0.000186976 0.000186848 0.102436)
(7.96068e-05 7.96363e-05 0.102816)
(8.24295e-05 0.00014365 0.102442)
(-8.24668e-05 0.000143699 0.102442)
(7.92892e-05 0.000139215 0.102793)
(-7.93594e-05 0.000139264 0.102793)
(-0.000186942 0.000186831 0.102436)
(-7.96672e-05 7.96926e-05 0.102816)
(0.000143638 8.24364e-05 0.102442)
(0.000143673 -8.23479e-05 0.102442)
(0.000139121 7.92864e-05 0.102793)
(0.000139166 -7.92878e-05 0.102793)
(-0.000143736 -8.24903e-05 0.102442)
(-0.000139214 7.93232e-05 0.102793)
(-0.000139271 -7.9354e-05 0.102793)
(0.000186837 -0.000186879 0.102435)
(7.96423e-05 -7.96305e-05 0.102816)
(-8.2583e-05 -0.000143662 0.102442)
(7.93001e-05 -0.000139176 0.102793)
(-7.94095e-05 -0.000139204 0.102793)
(-7.97545e-05 -7.96854e-05 0.102817)
(0.000181505 0.00018149 0.102875)
(7.18593e-05 7.19295e-05 0.103234)
(7.83532e-05 0.000137781 0.102907)
(-7.84233e-05 0.000137837 0.102907)
(7.58731e-05 0.000133688 0.10324)
(-7.58814e-05 0.000133687 0.10324)
(-0.00018154 0.000181521 0.102875)
(-7.18939e-05 7.19143e-05 0.103234)
(0.000137671 7.83492e-05 0.102907)
(0.000137709 -7.83669e-05 0.102907)
(0.000133556 7.58646e-05 0.10324)
(0.000133555 -7.58672e-05 0.10324)
(-0.000137832 -7.84122e-05 0.102907)
(-0.000133641 7.58578e-05 0.10324)
(-0.000133707 -7.58799e-05 0.10324)
(0.000181464 -0.000181545 0.102875)
(7.1865e-05 -7.19161e-05 0.103234)
(-7.84618e-05 -0.000137755 0.102907)
(7.58453e-05 -0.000133628 0.10324)
(-7.59143e-05 -0.000133609 0.10324)
(-7.19726e-05 -7.18929e-05 0.103234)
(0.0001769 0.000176908 0.103285)
(6.51704e-05 6.51528e-05 0.103626)
(7.51525e-05 0.000132405 0.103348)
(-7.51296e-05 0.000132387 0.103349)
(7.32394e-05 0.000128797 0.103665)
(-7.31358e-05 0.000128729 0.103665)
(-0.000176878 0.000176851 0.103285)
(-6.50741e-05 6.50677e-05 0.103626)
(0.000132288 7.51396e-05 0.103349)
(0.00013226 -7.51176e-05 0.103348)
(0.000128739 7.32121e-05 0.103665)
(0.000128662 -7.31071e-05 0.103665)
(-0.000132411 -7.51298e-05 0.103349)
(-0.000128724 7.31152e-05 0.103665)
(-0.000128765 -7.31498e-05 0.103665)
(0.000176805 -0.000176935 0.103285)
(6.50575e-05 -6.50701e-05 0.103626)
(-7.5155e-05 -0.000132314 0.103349)
(7.3132e-05 -0.000128695 0.103665)
(-7.31415e-05 -0.000128693 0.103665)
(-6.51159e-05 -6.50738e-05 0.103626)
(0.000173278 0.000173175 0.103668)
(5.92682e-05 5.923e-05 0.103993)
(7.26707e-05 0.000127666 0.103768)
(-7.25516e-05 0.000127595 0.103768)
(7.11421e-05 0.00012452 0.10407)
(-7.10037e-05 0.000124443 0.10407)
(-0.000173121 0.000173062 0.103668)
(-5.91215e-05 5.91678e-05 0.103993)
(0.000127642 7.26345e-05 0.103768)
(0.000127555 -7.25165e-05 0.103768)
(0.000124543 7.10857e-05 0.10407)
(0.000124466 -7.09609e-05 0.10407)
(-0.000127639 -7.25681e-05 0.103768)
(-0.000124465 7.09805e-05 0.10407)
(-0.000124479 -7.10173e-05 0.10407)
(0.000173061 -0.000173156 0.103668)
(5.92066e-05 -5.91012e-05 0.103993)
(-7.25466e-05 -0.000127576 0.103768)
(7.10316e-05 -0.000124422 0.10407)
(-7.09718e-05 -0.000124441 0.10407)
(-5.91373e-05 -5.91216e-05 0.103993)
(0.000170399 0.000170202 0.104027)
(5.42401e-05 5.43462e-05 0.104338)
(7.07292e-05 0.000123563 0.104168)
(-7.05952e-05 0.000123486 0.104168)
(6.97502e-05 0.000120908 0.104456)
(-6.96335e-05 0.000120836 0.104456)
(-0.000170202 0.00017011 0.104027)
(-5.41371e-05 5.43235e-05 0.104338)
(0.000123584 7.0646e-05 0.104168)
(0.000123518 -7.0555e-05 0.104168)
(0.000120873 6.95789e-05 0.104457)
(0.000120859 -6.95997e-05 0.104457)
(-0.000123508 -7.0559e-05 0.104168)
(-0.000120808 6.95228e-05 0.104457)
(-0.000120813 -6.94794e-05 0.104457)
(0.000170153 -0.000170254 0.104027)
(5.4352e-05 -5.40638e-05 0.104338)
(-7.05072e-05 -0.000123472 0.104168)
(6.94994e-05 -0.00012076 0.104457)
(-6.93871e-05 -0.000120757 0.104457)
(-5.41345e-05 -5.40402e-05 0.104338)
(0.000168236 0.000168177 0.104363)
(4.97591e-05 4.99029e-05 0.104663)
(6.9456e-05 0.000120091 0.104551)
(-6.93499e-05 0.000120016 0.104551)
(6.86648e-05 0.000117748 0.104827)
(-6.85646e-05 0.000117664 0.104827)
(-0.000168092 0.000168118 0.104363)
(-4.96498e-05 4.98722e-05 0.104663)
(0.000120031 6.92868e-05 0.104551)
(0.000120031 -6.93322e-05 0.104551)
(0.000117606 6.85127e-05 0.104827)
(0.000117639 -6.85923e-05 0.104827)
(-0.000119991 -6.91935e-05 0.104551)
(-0.000117597 6.84245e-05 0.104827)
(-0.000117633 -6.8408e-05 0.104827)
(0.000168153 -0.000168123 0.104363)
(4.98736e-05 -4.96871e-05 0.104663)
(-6.90988e-05 -0.000119924 0.104551)
(6.84162e-05 -0.000117552 0.104827)
(-6.83292e-05 -0.00011754 0.104827)
(-4.97159e-05 -4.96303e-05 0.104663)
(0.000166637 0.000166637 0.104678)
(4.55269e-05 4.5634e-05 0.104968)
(6.8394e-05 0.000116979 0.104917)
(-6.83123e-05 0.000116901 0.104917)
(6.76228e-05 0.000114737 0.105182)
(-6.7572e-05 0.000114661 0.105182)
(-0.000166521 0.000166572 0.104678)
(-4.54847e-05 4.56348e-05 0.104968)
(0.000116824 6.82517e-05 0.104917)
(0.000116864 -6.83455e-05 0.104917)
(0.000114555 6.74962e-05 0.105182)
(0.000114599 -6.76049e-05 0.105182)
(-0.000116884 -6.81529e-05 0.104917)
(-0.000114616 6.73966e-05 0.105182)
(-0.000114663 -6.73953e-05 0.105182)
(0.000166588 -0.000166611 0.104678)
(4.56022e-05 -4.55261e-05 0.104968)
(-6.80801e-05 -0.000116781 0.104917)
(6.73919e-05 -0.000114557 0.105182)
(-6.73402e-05 -0.000114546 0.105182)
(-4.55187e-05 -4.54622e-05 0.104968)
(0.000165272 0.000165265 0.104972)
(4.15708e-05 4.16148e-05 0.105254)
(6.73673e-05 0.000114012 0.105269)
(-6.73245e-05 0.00011393 0.105269)
(6.66125e-05 0.000111944 0.105523)
(-6.6569e-05 0.000111894 0.105523)
(-0.000165207 0.000165224 0.104972)
(-4.15729e-05 4.16318e-05 0.105254)
(0.000113822 6.72489e-05 0.105269)
(0.000113862 -6.73565e-05 0.105269)
(0.0001118 6.65096e-05 0.105524)
(0.00011184 -6.65906e-05 0.105523)
(-0.000113949 -6.71437e-05 0.105269)
(-0.000111862 6.63928e-05 0.105523)
(-0.0001119 -6.63744e-05 0.105523)
(0.000165217 -0.000165292 0.104972)
(4.15842e-05 -4.15938e-05 0.105254)
(-6.70931e-05 -0.000113827 0.105269)
(6.64082e-05 -0.000111835 0.105524)
(-6.63508e-05 -0.000111778 0.105524)
(-4.15468e-05 -4.15267e-05 0.105254)
(0.000164126 0.000164062 0.105246)
(3.7623e-05 3.77304e-05 0.105519)
(6.63464e-05 0.000111302 0.105606)
(-6.63093e-05 0.000111259 0.105606)
(6.55711e-05 0.000109421 0.10585)
(-6.55417e-05 0.000109375 0.10585)
(-0.000164136 0.00016405 0.105246)
(-3.75728e-05 3.76955e-05 0.105519)
(0.000111174 6.62584e-05 0.105607)
(0.000111211 -6.6324e-05 0.105606)
(0.000109324 6.54414e-05 0.105851)
(0.000109363 -6.55404e-05 0.10585)
(-0.00011127 -6.6114e-05 0.105606)
(-0.000109365 6.53179e-05 0.105851)
(-0.000109403 -6.53404e-05 0.10585)
(0.000164035 -0.000164198 0.105246)
(3.77254e-05 -3.75656e-05 0.105519)
(-6.6093e-05 -0.000111143 0.105607)
(6.53502e-05 -0.000109338 0.105851)
(-6.52869e-05 -0.000109263 0.105851)
(-3.76445e-05 -3.74985e-05 0.105519)
(0.000163089 0.000163025 0.105498)
(3.34988e-05 3.36051e-05 0.105764)
(6.53078e-05 0.000108799 0.10593)
(-6.52824e-05 0.000108764 0.10593)
(6.45697e-05 0.000106966 0.106163)
(-6.4538e-05 0.000106928 0.106163)
(-0.000163068 0.000162993 0.105498)
(-3.33919e-05 3.35486e-05 0.105764)
(0.000108721 6.51718e-05 0.10593)
(0.000108757 -6.52738e-05 0.10593)
(0.000106915 6.43887e-05 0.106163)
(0.000106954 -6.45165e-05 0.106163)
(-0.000108796 -6.50795e-05 0.10593)
(-0.000106924 6.42601e-05 0.106163)
(-0.000106966 -6.43368e-05 0.106163)
(0.000163007 -0.000163085 0.105498)
(3.3658e-05 -3.33697e-05 0.105764)
(-6.50239e-05 -0.00010865 0.10593)
(6.42886e-05 -0.000106889 0.106163)
(-6.42378e-05 -0.000106812 0.106163)
(-3.34997e-05 -3.32994e-05 0.105764)
(0.000161847 0.000161789 0.105728)
(2.94111e-05 2.94707e-05 0.105987)
(6.4319e-05 0.000106354 0.106239)
(-6.42913e-05 0.000106333 0.106239)
(6.35777e-05 0.000104583 0.106461)
(-6.35542e-05 0.000104554 0.106461)
(-0.000161792 0.000161742 0.105728)
(-2.93007e-05 2.94234e-05 0.105987)
(0.000106319 6.41337e-05 0.106239)
(0.000106355 -6.42622e-05 0.106239)
(0.000104548 6.33969e-05 0.106462)
(0.000104579 -6.35108e-05 0.106461)
(-0.000106365 -6.40918e-05 0.106239)
(-0.000104526 6.32725e-05 0.106462)
(-0.000104566 -6.33559e-05 0.106461)
(0.000161808 -0.000161793 0.105728)
(2.95124e-05 -2.92756e-05 0.105987)
(-6.39861e-05 -0.000106214 0.106239)
(6.32789e-05 -0.00010449 0.106462)
(-6.32377e-05 -0.000104426 0.106462)
(-2.93533e-05 -2.92257e-05 0.105987)
(0.000160372 0.000160294 0.105934)
(2.55497e-05 2.56034e-05 0.106186)
(6.33249e-05 0.000103978 0.106534)
(-6.32891e-05 0.000103966 0.106534)
(6.2564e-05 0.000102256 0.106745)
(-6.2523e-05 0.000102213 0.106745)
(-0.000160296 0.000160244 0.105935)
(-2.54529e-05 2.5513e-05 0.106186)
(0.000103959 6.31476e-05 0.106534)
(0.000103989 -6.32562e-05 0.106533)
(0.000102215 6.24035e-05 0.106745)
(0.000102238 -6.24965e-05 0.106745)
(-0.000103979 -6.31083e-05 0.106534)
(-0.000102174 6.22568e-05 0.106745)
(-0.000102214 -6.23602e-05 0.106745)
(0.000160309 -0.000160316 0.105935)
(2.56069e-05 -2.54185e-05 0.106186)
(-6.29861e-05 -0.000103847 0.106534)
(6.22705e-05 -0.000102139 0.106745)
(-6.22279e-05 -0.000102098 0.106745)
(-2.54593e-05 -2.53914e-05 0.106186)
(0.000158755 0.000158678 0.106117)
(2.19888e-05 2.20555e-05 0.106361)
(6.23035e-05 0.000101655 0.106813)
(-6.22559e-05 0.000101639 0.106813)
(6.15433e-05 0.000100003 0.107012)
(-6.14805e-05 9.99119e-05 0.107012)
(-0.000158675 0.000158603 0.106117)
(-2.18718e-05 2.19164e-05 0.106361)
(0.000101628 6.21488e-05 0.106813)
(0.000101653 -6.2237e-05 0.106813)
(9.99518e-05 6.1414e-05 0.107013)
(9.99686e-05 -6.14928e-05 0.107012)
(-0.000101641 -6.21131e-05 0.106813)
(-9.9852e-05 6.12434e-05 0.107013)
(-9.99112e-05 -6.13538e-05 0.107013)
(0.00015867 -0.000158703 0.106117)
(2.20304e-05 -2.18745e-05 0.106361)
(-6.1976e-05 -0.00010153 0.106813)
(6.12722e-05 -9.9879e-05 0.107013)
(-6.12217e-05 -9.98045e-05 0.107013)
(-2.18863e-05 -2.18545e-05 0.106361)
(0.000156929 0.000156876 0.106274)
(1.86688e-05 1.87614e-05 0.106509)
(6.12957e-05 9.94928e-05 0.107077)
(-6.12269e-05 9.93824e-05 0.107077)
(6.05693e-05 9.80243e-05 0.107264)
(-6.05173e-05 9.78771e-05 0.107264)
(-0.000156842 0.000156783 0.106274)
(-1.85772e-05 1.86129e-05 0.10651)
(9.94484e-05 6.11778e-05 0.107077)
(9.9468e-05 -6.12516e-05 0.107077)
(9.79548e-05 6.04814e-05 0.107265)
(9.79713e-05 -6.05389e-05 0.107264)
(-9.93747e-05 -6.11139e-05 0.107077)
(-9.77917e-05 6.02982e-05 0.107265)
(-9.78585e-05 -6.03974e-05 0.107264)
(0.000156847 -0.000156895 0.106274)
(1.8709e-05 -1.85881e-05 0.106509)
(-6.09813e-05 -9.92663e-05 0.107077)
(6.03234e-05 -9.78887e-05 0.107265)
(-6.02685e-05 -9.77598e-05 0.107265)
(-1.85863e-05 -1.85718e-05 0.106509)
(0.000154857 0.000154828 0.106405)
(1.55196e-05 1.56427e-05 0.106631)
(6.03188e-05 9.7568e-05 0.107325)
(-6.02705e-05 9.74116e-05 0.107325)
(5.9587e-05 9.61067e-05 0.1075)
(-5.95503e-05 9.60216e-05 0.1075)
(-0.000154788 0.000154738 0.106405)
(-1.54611e-05 1.55232e-05 0.106631)
(9.74744e-05 6.0243e-05 0.107325)
(9.74895e-05 -6.02927e-05 0.107325)
(9.60418e-05 5.95108e-05 0.1075)
(9.60601e-05 -5.95629e-05 0.1075)
(-9.73833e-05 -6.01589e-05 0.107325)
(-9.59119e-05 5.93285e-05 0.1075)
(-9.59627e-05 -5.94257e-05 0.1075)
(0.000154763 -0.000154837 0.106405)
(1.55712e-05 -1.54772e-05 0.106631)
(-6.00319e-05 -9.72836e-05 0.107325)
(5.93522e-05 -9.59957e-05 0.1075)
(-5.93096e-05 -9.58715e-05 0.1075)
(-1.54852e-05 -1.54689e-05 0.106631)
(0.000152407 0.000152416 0.106508)
(1.25736e-05 1.27007e-05 0.106725)
(5.93219e-05 9.56353e-05 0.107556)
(-5.93038e-05 9.55677e-05 0.107556)
(5.85473e-05 9.41918e-05 0.107718)
(-5.8546e-05 9.42118e-05 0.107718)
(-0.000152337 0.00015231 0.106508)
(-1.2545e-05 1.25508e-05 0.106726)
(9.55832e-05 5.9255e-05 0.107556)
(9.56005e-05 -5.93182e-05 0.107556)
(9.41793e-05 5.84819e-05 0.107718)
(9.42052e-05 -5.85487e-05 0.107718)
(-9.55093e-05 -5.91837e-05 0.107556)
(-9.40785e-05 5.83312e-05 0.107718)
(-9.41207e-05 -5.84142e-05 0.107718)
(0.000152332 -0.000152413 0.106509)
(1.26083e-05 -1.25422e-05 0.106725)
(-5.90698e-05 -9.54189e-05 0.107556)
(5.83364e-05 -9.41514e-05 0.107718)
(-5.82931e-05 -9.40286e-05 0.107718)
(-1.25387e-05 -1.25263e-05 0.106725)
(0.00014955 0.000149575 0.106585)
(9.74769e-06 9.77375e-06 0.106791)
(5.82726e-05 9.37185e-05 0.10777)
(-5.82718e-05 9.37627e-05 0.107769)
(5.73837e-05 9.22409e-05 0.107918)
(-5.74257e-05 9.23371e-05 0.107918)
(-0.000149489 0.000149438 0.106585)
(-9.68499e-06 9.72805e-06 0.106792)
(9.37297e-05 5.82156e-05 0.10777)
(9.37533e-05 -5.82798e-05 0.107769)
(9.22872e-05 5.73576e-05 0.107919)
(9.231e-05 -5.74318e-05 0.107918)
(-9.36646e-05 -5.81476e-05 0.10777)
(-9.21779e-05 5.72216e-05 0.107919)
(-9.22207e-05 -5.72936e-05 0.107918)
(0.000149464 -0.000149556 0.106585)
(9.74482e-06 -9.70826e-06 0.106791)
(-5.8024e-05 -9.35686e-05 0.10777)
(5.72334e-05 -9.22664e-05 0.107919)
(-5.71685e-05 -9.21304e-05 0.107919)
(-9.67513e-06 -9.66895e-06 0.106791)
(0.00014621 0.000146125 0.106634)
(6.9244e-06 7.05813e-06 0.10683)
(5.70775e-05 9.17476e-05 0.107966)
(-5.71141e-05 9.18556e-05 0.107965)
(5.62002e-05 9.01883e-05 0.108101)
(-5.62263e-05 9.03205e-05 0.1081)
(-0.000146134 0.000146118 0.106634)
(-6.92591e-06 6.95294e-06 0.106831)
(9.18098e-05 5.70586e-05 0.107966)
(9.18252e-05 -5.71276e-05 0.107965)
(9.0264e-05 5.61416e-05 0.108101)
(9.02944e-05 -5.62276e-05 0.1081)
(-9.17317e-05 -5.69899e-05 0.107966)
(-9.0138e-05 5.60144e-05 0.108101)
(-9.01938e-05 -5.60871e-05 0.108101)
(0.000146121 -0.000146236 0.106635)
(7.02002e-06 -6.90972e-06 0.10683)
(-5.6862e-05 -9.16376e-05 0.107966)
(5.60432e-05 -9.02459e-05 0.108101)
(-5.59705e-05 -9.00927e-05 0.108101)
(-6.90318e-06 -6.89603e-06 0.10683)
(0.00014232 0.00014229 0.106658)
(4.2877e-06 4.41518e-06 0.106843)
(5.59105e-05 8.96456e-05 0.108143)
(-5.59327e-05 8.9783e-05 0.108143)
(5.49997e-05 8.79259e-05 0.108264)
(-5.50306e-05 8.80757e-05 0.108264)
(-0.000142255 0.000142224 0.106658)
(-4.27823e-06 4.27932e-06 0.106844)
(8.97352e-05 5.58373e-05 0.108144)
(8.97625e-05 -5.59367e-05 0.108143)
(8.80251e-05 5.49213e-05 0.108265)
(8.80587e-05 -5.50339e-05 0.108264)
(-8.96576e-05 -5.57974e-05 0.108143)
(-8.79107e-05 5.48162e-05 0.108265)
(-8.79599e-05 -5.49057e-05 0.108264)
(0.000142264 -0.000142347 0.106658)
(4.36105e-06 -4.25177e-06 0.106843)
(-5.56761e-05 -8.95327e-05 0.108144)
(5.48253e-05 -8.80039e-05 0.108265)
(-5.47632e-05 -8.78668e-05 0.108265)
(-4.26136e-06 -4.26881e-06 0.106843)
(0.000138036 0.000137969 0.106656)
(1.71177e-06 1.90758e-06 0.106832)
(5.46857e-05 8.73496e-05 0.108302)
(-5.47229e-05 8.7499e-05 0.108302)
(5.375e-05 8.55647e-05 0.108409)
(-5.37789e-05 8.57188e-05 0.108409)
(-0.000137993 0.000137939 0.106657)
(-1.75951e-06 1.74912e-06 0.106832)
(8.74526e-05 5.45917e-05 0.108303)
(8.74867e-05 -5.47186e-05 0.108302)
(8.56647e-05 5.36269e-05 0.10841)
(8.57092e-05 -5.37674e-05 0.108409)
(-8.73905e-05 -5.45912e-05 0.108302)
(-8.5573e-05 5.35645e-05 0.10841)
(-8.56137e-05 -5.36419e-05 0.108409)
(0.000137973 -0.00013807 0.106657)
(1.83299e-06 -1.68612e-06 0.106831)
(-5.44508e-05 -8.73096e-05 0.108303)
(5.35366e-05 -8.56589e-05 0.10841)
(-5.35087e-05 -8.55477e-05 0.10841)
(-1.70682e-06 -1.70569e-06 0.106831)
(0.000133367 0.000133359 0.106633)
(-7.62152e-07 -5.98281e-07 0.106798)
(5.34375e-05 8.49538e-05 0.108443)
(-5.34636e-05 8.51052e-05 0.108442)
(5.24618e-05 8.30449e-05 0.108536)
(-5.24928e-05 8.32034e-05 0.108535)
(-0.00013336 0.000133302 0.106633)
(6.80631e-07 -7.15272e-07 0.106799)
(8.50542e-05 5.3303e-05 0.108443)
(8.50989e-05 -5.3449e-05 0.108442)
(8.31396e-05 5.23206e-05 0.108536)
(8.31853e-05 -5.24738e-05 0.108535)
(-8.50007e-05 -5.33282e-05 0.108443)
(-8.30739e-05 5.22724e-05 0.108537)
(-8.30979e-05 -5.23439e-05 0.108536)
(0.000133324 -0.0001334 0.106633)
(-6.46306e-07 7.85875e-07 0.106798)
(-5.32005e-05 -8.49422e-05 0.108443)
(5.22359e-05 -8.31325e-05 0.108536)
(-5.22355e-05 -8.30633e-05 0.108536)
(7.35906e-07 7.51154e-07 0.106798)
(0.000128514 0.000128499 0.106589)
(-3.24933e-06 -3.10116e-06 0.106746)
(5.21189e-05 8.2395e-05 0.108564)
(-5.21564e-05 8.25572e-05 0.108564)
(5.1073e-05 8.04121e-05 0.108643)
(-5.10996e-05 8.05683e-05 0.108643)
(-0.000128518 0.000128442 0.10659)
(3.15174e-06 -3.17409e-06 0.106746)
(8.24917e-05 5.1974e-05 0.108565)
(8.25359e-05 -5.21286e-05 0.108564)
(8.04923e-05 5.09424e-05 0.108644)
(8.05402e-05 -5.10868e-05 0.108643)
(-8.24537e-05 -5.20043e-05 0.108564)
(-8.04562e-05 5.08942e-05 0.108645)
(-8.04673e-05 -5.09447e-05 0.108643)
(0.000128482 -0.000128555 0.10659)
(-3.15791e-06 3.28502e-06 0.106745)
(-5.18976e-05 -8.2424e-05 0.108565)
(5.08413e-05 -8.04916e-05 0.108644)
(-5.08557e-05 -8.04348e-05 0.108644)
(3.22862e-06 3.24854e-06 0.106745)
(0.000123438 0.000123421 0.106529)
(-5.74768e-06 -5.59045e-06 0.106677)
(5.07041e-05 7.9727e-05 0.108667)
(-5.07339e-05 7.98835e-05 0.108667)
(4.95655e-05 7.76234e-05 0.108733)
(-4.96007e-05 7.77725e-05 0.108733)
(-0.000123454 0.000123392 0.106529)
(5.69502e-06 -5.68602e-06 0.106678)
(7.98051e-05 5.05705e-05 0.108668)
(7.98551e-05 -5.07259e-05 0.108667)
(7.76901e-05 4.94318e-05 0.108734)
(7.77355e-05 -4.95715e-05 0.108732)
(-7.97848e-05 -5.0576e-05 0.108667)
(-7.7663e-05 4.94016e-05 0.108734)
(-7.76724e-05 -4.94387e-05 0.108733)
(0.000123407 -0.000123478 0.106529)
(-5.6678e-06 5.76669e-06 0.106677)
(-5.04913e-05 -7.97529e-05 0.108668)
(4.9344e-05 -7.76856e-05 0.108734)
(-4.93642e-05 -7.76476e-05 0.108733)
(5.69071e-06 5.75365e-06 0.106677)
(0.000118228 0.00011823 0.106454)
(-8.3216e-06 -8.19389e-06 0.106596)
(4.91485e-05 7.69019e-05 0.108752)
(-4.91825e-05 7.70514e-05 0.108752)
(4.78924e-05 7.47004e-05 0.108805)
(-4.7919e-05 7.48397e-05 0.108804)
(-0.000118229 0.000118184 0.106455)
(8.2525e-06 -8.2444e-06 0.106597)
(7.6966e-05 4.90194e-05 0.108753)
(7.70143e-05 -4.91481e-05 0.108752)
(7.47523e-05 4.7763e-05 0.108805)
(7.48055e-05 -4.78909e-05 0.108804)
(-7.69429e-05 -4.90418e-05 0.108752)
(-7.47308e-05 4.7728e-05 0.108806)
(-7.47309e-05 -4.77743e-05 0.108804)
(0.000118196 -0.000118264 0.106455)
(-8.2444e-06 8.34942e-06 0.106596)
(-4.89596e-05 -7.69243e-05 0.108753)
(4.76843e-05 -7.47383e-05 0.108805)
(-4.76913e-05 -7.47161e-05 0.108805)
(8.30769e-06 8.35523e-06 0.106596)
(0.000112919 0.000112913 0.106369)
(-1.08151e-05 -1.07098e-05 0.106505)
(4.74462e-05 7.39496e-05 0.10882)
(-4.74721e-05 7.40841e-05 0.10882)
(4.61137e-05 7.16465e-05 0.108859)
(-4.61233e-05 7.17841e-05 0.108859)
(-0.000112927 0.00011289 0.106369)
(1.08095e-05 -1.07815e-05 0.106506)
(7.40026e-05 4.73229e-05 0.108821)
(7.40491e-05 -4.74449e-05 0.108819)
(7.17055e-05 4.59867e-05 0.10886)
(7.17411e-05 -4.60928e-05 0.108859)
(-7.39788e-05 -4.73409e-05 0.10882)
(-7.16624e-05 4.59546e-05 0.108861)
(-7.16713e-05 -4.59995e-05 0.108859)
(0.00011284 -0.000112906 0.106369)
(-1.0759e-05 1.08583e-05 0.106505)
(-4.72538e-05 -7.39644e-05 0.10882)
(4.59052e-05 -7.16769e-05 0.10886)
(-4.59071e-05 -7.16626e-05 0.10886)
(1.08194e-05 1.08459e-05 0.106505)
(0.000107637 0.000107612 0.106275)
(-1.32751e-05 -1.31901e-05 0.106408)
(4.56466e-05 7.08611e-05 0.108871)
(-4.56656e-05 7.10024e-05 0.10887)