/*--------------------------------*- C++ -*----------------------------------*\
| =========                 |                                                 |
| \\      /  F ield         | OpenFOAM: The Open Source CFD Toolbox           |
|  \\    /   O peration     | Version:  v2012                                 |
|   \\  /    A nd           | Website:  www.openfoam.com                      |
|    \\/     M anipulation  |                                                 |
\*---------------------------------------------------------------------------*/
FoamFile
{
    version     2.0;
    format      ascii;
    class       volScalarField;
    location    "262.5";
    object      epsilon;
}
// * * * * * * * * * * * * * * * * * * * * * * * * * * * * * * * * * * * * * //

dimensions      [0 2 -3 0 0 0 0];


internalField   nonuniform List<scalar> 
171728
(
5.56554e-09
5.2864e-09
5.92157e-09
4.96481e-09
5.54399e-09
5.04287e-09
4.95393e-09
4.48816e-09
5.5534e-09
4.7997e-09
4.14149e-09
4.07052e-09
5.56792e-09
4.57761e-09
3.54301e-09
3.71577e-09
5.58776e-09
4.39555e-09
3.13105e-09
3.41147e-09
5.61315e-09
4.25835e-09
2.84765e-09
3.1514e-09
5.647e-09
4.20804e-09
2.66464e-09
2.93335e-09
5.69042e-09
4.23859e-09
2.58574e-09
2.75485e-09
5.74522e-09
4.37932e-09
2.58691e-09
2.61398e-09
5.8018e-09
4.63355e-09
2.64624e-09
2.50827e-09
5.86683e-09
4.86945e-09
2.76586e-09
2.43708e-09
5.9233e-09
4.79909e-09
2.91588e-09
2.4037e-09
5.96211e-09
4.70113e-09
3.08196e-09
2.41379e-09
6.00704e-09
4.90293e-09
3.29037e-09
2.47796e-09
6.07266e-09
5.1872e-09
3.64462e-09
2.62316e-09
6.15046e-09
5.34278e-09
4.18533e-09
2.88521e-09
6.2385e-09
5.39174e-09
4.90144e-09
3.3678e-09
6.33581e-09
5.40239e-09
5.71195e-09
4.16224e-09
6.44285e-09
6.34555e-09
6.85255e-09
5.53447e-09
6.56441e-09
7.65096e-09
8.50131e-09
7.83118e-09
6.70542e-09
9.63194e-09
1.04646e-08
1.20473e-08
6.87449e-09
1.36549e-08
1.45805e-08
1.88265e-08
7.07064e-09
1.80959e-08
1.90427e-08
3.24212e-08
7.3025e-09
2.62377e-08
2.56647e-08
4.92434e-08
7.61473e-09
3.2237e-08
3.39278e-08
7.66619e-08
7.97474e-09
4.71554e-08
4.577e-08
1.12482e-07
8.49532e-09
5.93824e-08
6.0988e-08
1.84584e-07
9.0856e-09
7.70584e-08
7.58996e-08
2.11772e-07
9.93433e-09
9.72693e-08
9.83217e-08
3.50849e-07
1.09764e-08
1.21957e-07
1.19791e-07
3.83577e-07
1.21792e-08
1.47069e-07
1.46709e-07
4.42881e-07
1.41142e-08
1.76874e-07
1.76807e-07
5.43302e-07
1.60949e-08
2.084e-07
2.09442e-07
5.94731e-07
1.91673e-08
2.46555e-07
2.50476e-07
6.75999e-07
2.17718e-08
2.88069e-07
2.80939e-07
7.1046e-07
2.67753e-08
3.19521e-07
3.28952e-07
7.79335e-07
3.12299e-08
3.76741e-07
3.7391e-07
8.25182e-07
3.68726e-08
4.16182e-07
4.12682e-07
8.59177e-07
4.43243e-08
4.61351e-07
4.65984e-07
9.00267e-07
5.32875e-08
5.13087e-07
5.10766e-07
9.33579e-07
6.3028e-08
5.63759e-07
5.64099e-07
9.71085e-07
7.53029e-08
6.07885e-07
6.11463e-07
9.98953e-07
8.77733e-08
6.61217e-07
6.58061e-07
1.03293e-06
1.04758e-07
7.06153e-07
7.06938e-07
1.06005e-06
1.20424e-07
7.50782e-07
7.52559e-07
1.08502e-06
1.41049e-07
7.96463e-07
7.92697e-07
1.11539e-06
1.60522e-07
8.35581e-07
8.39439e-07
1.1392e-06
1.86287e-07
8.74871e-07
8.7217e-07
1.1662e-06
2.08456e-07
9.07694e-07
9.07554e-07
1.18629e-06
2.33754e-07
9.45064e-07
9.48014e-07
1.21038e-06
2.64199e-07
9.73142e-07
9.71138e-07
1.23284e-06
2.92201e-07
9.99552e-07
1.00068e-06
1.25368e-06
3.18836e-07
1.01712e-06
1.01934e-06
1.26458e-06
3.46977e-07
1.04367e-06
1.04324e-06
1.28422e-06
3.76323e-07
1.05286e-06
1.05281e-06
1.29319e-06
3.8872e-07
1.04559e-06
1.04543e-06
1.27576e-06
4.10911e-07
1.06115e-06
1.06056e-06
1.28944e-06
4.61458e-07
1.10533e-06
1.10441e-06
1.34055e-06
5.01607e-07
1.13707e-06
1.13636e-06
1.38067e-06
5.11532e-07
1.13854e-06
1.13817e-06
1.38102e-06
4.979e-07
1.10946e-06
1.1095e-06
1.3402e-06
4.70618e-07
1.06512e-06
1.06537e-06
1.28018e-06
4.53613e-07
1.02955e-06
1.02976e-06
1.23006e-06
4.64074e-07
1.02957e-06
1.02968e-06
1.23126e-06
5.13109e-07
1.06938e-06
1.06944e-06
1.2817e-06
5.64195e-07
1.10629e-06
1.10636e-06
1.33271e-06
5.94867e-07
1.13019e-06
1.13027e-06
1.36815e-06
6.08853e-07
1.14248e-06
1.14256e-06
1.38813e-06
6.14123e-07
1.14795e-06
1.14803e-06
1.39793e-06
6.16003e-07
1.1502e-06
1.15028e-06
1.40224e-06
6.16477e-07
1.15084e-06
1.15092e-06
1.40382e-06
6.16437e-07
1.15087e-06
1.15095e-06
1.40409e-06
6.16451e-07
1.15092e-06
1.151e-06
1.40402e-06
6.16496e-07
1.15102e-06
1.1511e-06
1.40433e-06
6.16444e-07
1.15091e-06
1.151e-06
1.40403e-06
6.16464e-07
1.15098e-06
1.15106e-06
1.40419e-06
6.16455e-07
1.15095e-06
1.15103e-06
1.4042e-06
6.16449e-07
1.15094e-06
1.15102e-06
1.40407e-06
6.16453e-07
1.15096e-06
1.15104e-06
1.40426e-06
6.16444e-07
1.15093e-06
1.15102e-06
1.40407e-06
6.16445e-07
1.15095e-06
1.15104e-06
1.40427e-06
6.16439e-07
1.15094e-06
1.15102e-06
1.4041e-06
6.16438e-07
1.15094e-06
1.15102e-06
1.40422e-06
6.16436e-07
1.15094e-06
1.15102e-06
1.40416e-06
6.16436e-07
1.15094e-06
1.15103e-06
1.40414e-06
6.16436e-07
1.15095e-06
1.15103e-06
1.40424e-06
6.16437e-07
1.15095e-06
1.15103e-06
1.40413e-06
6.16437e-07
1.15095e-06
1.15104e-06
1.40414e-06
6.16439e-07
1.15096e-06
1.15104e-06
1.40423e-06
6.16443e-07
1.15097e-06
1.15106e-06
1.40425e-06
6.16448e-07
1.15099e-06
1.15107e-06
1.40415e-06
6.16456e-07
1.15102e-06
1.15109e-06
1.40412e-06
6.16455e-07
1.15105e-06
1.15113e-06
1.40417e-06
6.16202e-07
1.15075e-06
1.15082e-06
1.40387e-06
5.96676e-07
1.09244e-06
1.09243e-06
1.36137e-06
5.16909e-09
4.27238e-09
4.15478e-09
4.79634e-09
4.24384e-09
4.45888e-09
5.58791e-09
6.07311e-09
5.58606e-09
5.48068e-09
4.72281e-09
4.2763e-09
4.94445e-09
4.06342e-09
4.17262e-09
4.99366e-09
5.13787e-09
4.68272e-09
5.20157e-09
5.25621e-09
4.88055e-09
4.96816e-09
4.74918e-09
4.39775e-09
4.79587e-09
5.62053e-09
4.45202e-09
5.34956e-09
4.72252e-09
5.10619e-09
4.40963e-09
4.88875e-09
4.52461e-09
4.71479e-09
5.20307e-09
4.3652e-09
4.52256e-09
4.64237e-09
4.24355e-09
4.77162e-09
4.87804e-09
4.46917e-09
4.6591e-09
4.3325e-09
4.06381e-09
4.3403e-09
5.25814e-09
4.04794e-09
5.00132e-09
4.30621e-09
4.85834e-09
4.02147e-09
4.4533e-09
4.14058e-09
4.24778e-09
4.3203e-09
3.93375e-09
4.09956e-09
4.19896e-09
3.86857e-09
4.37626e-09
4.59902e-09
4.11173e-09
4.44847e-09
4.00966e-09
3.80292e-09
3.96273e-09
4.9206e-09
3.738e-09
4.69219e-09
3.93351e-09
4.63124e-09
3.68664e-09
4.07917e-09
3.80473e-09
3.84188e-09
3.67369e-09
3.59635e-09
3.74054e-09
3.83273e-09
3.55204e-09
4.02718e-09
4.40541e-09
3.78876e-09
4.29159e-09
3.75856e-09
3.59966e-09
3.67152e-09
4.62046e-09
3.49543e-09
4.42171e-09
3.61047e-09
4.4367e-09
3.39721e-09
3.75014e-09
3.50375e-09
3.523e-09
3.2203e-09
3.32035e-09
3.43254e-09
3.52963e-09
3.29708e-09
3.71216e-09
4.25793e-09
3.48639e-09
4.16477e-09
3.56399e-09
3.43484e-09
3.44415e-09
4.35962e-09
3.30911e-09
4.18938e-09
3.33183e-09
4.28709e-09
3.15354e-09
3.47018e-09
3.25087e-09
3.25843e-09
2.90815e-09
3.09247e-09
3.16863e-09
3.27928e-09
3.08612e-09
3.41542e-09
4.13352e-09
3.22546e-09
4.03562e-09
3.40428e-09
3.29184e-09
3.27136e-09
4.13949e-09
3.17317e-09
4.00446e-09
3.09959e-09
4.20972e-09
2.95833e-09
3.23239e-09
3.03961e-09
3.04371e-09
2.70131e-09
2.91122e-09
2.94666e-09
3.07288e-09
2.91515e-09
3.16964e-09
3.99941e-09
3.02205e-09
3.88525e-09
3.26677e-09
3.17305e-09
3.14784e-09
3.96241e-09
3.08606e-09
3.86189e-09
2.91621e-09
4.21882e-09
2.80828e-09
3.02582e-09
2.87008e-09
2.87186e-09
2.5945e-09
2.76963e-09
2.76411e-09
2.90596e-09
2.77767e-09
2.97732e-09
3.8482e-09
2.8615e-09
3.73768e-09
3.16262e-09
3.11481e-09
3.0722e-09
3.83665e-09
3.05022e-09
3.76433e-09
2.77683e-09
4.33501e-09
2.70191e-09
2.86126e-09
2.75074e-09
2.74033e-09
2.58422e-09
2.66916e-09
2.61894e-09
2.77206e-09
2.66791e-09
2.82777e-09
3.70147e-09
2.74172e-09
3.59414e-09
3.11147e-09
3.09722e-09
3.05069e-09
3.73426e-09
3.06559e-09
3.62202e-09
2.68163e-09
4.56071e-09
2.63601e-09
2.74567e-09
2.65309e-09
2.64935e-09
2.6227e-09
2.60783e-09
2.5086e-09
2.66668e-09
2.59977e-09
2.7204e-09
3.55986e-09
2.67622e-09
3.47517e-09
3.09915e-09
3.09114e-09
3.07761e-09
3.5823e-09
3.1383e-09
3.48431e-09
2.62657e-09
4.83094e-09
2.60817e-09
2.64991e-09
2.59646e-09
2.59804e-09
2.73258e-09
2.58392e-09
2.43372e-09
2.60356e-09
2.57404e-09
2.66742e-09
3.4595e-09
2.6666e-09
3.45267e-09
3.09438e-09
3.03079e-09
3.16656e-09
3.46172e-09
3.26454e-09
3.42925e-09
2.60821e-09
4.86578e-09
2.62002e-09
2.60281e-09
2.60154e-09
2.58448e-09
2.87636e-09
2.59913e-09
2.39325e-09
2.5845e-09
2.57477e-09
2.67164e-09
3.46469e-09
2.71203e-09
3.59321e-09
3.03935e-09
3.10817e-09
3.29811e-09
3.43039e-09
3.39157e-09
3.45688e-09
2.62928e-09
4.69432e-09
2.67618e-09
2.61501e-09
2.62629e-09
2.60987e-09
3.04009e-09
2.66111e-09
2.393e-09
2.59282e-09
2.62514e-09
2.73173e-09
3.65036e-09
2.8242e-09
3.89269e-09
3.14545e-09
3.26375e-09
3.42121e-09
3.47594e-09
3.53048e-09
3.54183e-09
2.69883e-09
4.83042e-09
2.79262e-09
2.64584e-09
2.68899e-09
2.68494e-09
3.22859e-09
2.77893e-09
2.44411e-09
2.66072e-09
2.77761e-09
2.86433e-09
3.99879e-09
3.02071e-09
4.36895e-09
3.30888e-09
3.46994e-09
3.58175e-09
3.57123e-09
3.79894e-09
3.66748e-09
2.8317e-09
5.12178e-09
2.98463e-09
2.7232e-09
2.82389e-09
2.81942e-09
3.54093e-09
2.97421e-09
2.5657e-09
2.84611e-09
3.07361e-09
3.08293e-09
4.50124e-09
3.32334e-09
4.9608e-09
3.53679e-09
3.74181e-09
3.89706e-09
3.70469e-09
4.26118e-09
3.8476e-09
3.04838e-09
5.31561e-09
3.2822e-09
2.88293e-09
3.05985e-09
3.03836e-09
4.03863e-09
3.26883e-09
2.78573e-09
3.18317e-09
3.56464e-09
3.4183e-09
5.12818e-09
3.78991e-09
5.73285e-09
3.84105e-09
4.2286e-09
4.4045e-09
3.90009e-09
4.908e-09
4.1389e-09
3.38365e-09
5.40902e-09
3.75112e-09
3.15875e-09
3.45875e-09
3.36774e-09
4.69076e-09
3.72963e-09
3.19197e-09
3.72999e-09
4.36034e-09
3.9367e-09
5.94603e-09
4.49497e-09
6.6468e-09
4.38949e-09
4.71578e-09
5.1014e-09
4.24836e-09
5.77209e-09
4.65696e-09
3.90557e-09
5.35031e-09
4.4544e-09
3.63312e-09
4.08464e-09
3.8841e-09
5.43717e-09
4.42101e-09
3.87293e-09
4.61157e-09
5.73003e-09
4.70963e-09
6.94914e-09
5.62434e-09
7.92534e-09
5.00968e-09
6.13211e-09
6.01423e-09
4.88958e-09
6.94403e-09
5.57125e-09
4.69217e-09
6.06759e-09
5.53103e-09
4.37523e-09
5.24691e-09
4.65831e-09
6.62749e-09
5.47752e-09
5.07442e-09
6.17048e-09
7.67175e-09
5.9123e-09
8.29054e-09
7.16637e-09
9.60472e-09
6.4673e-09
8.09075e-09
7.25394e-09
5.84071e-09
8.429e-09
7.22345e-09
5.87679e-09
7.36932e-09
7.05014e-09
5.566e-09
7.68669e-09
5.82878e-09
8.10286e-09
7.00575e-09
7.06676e-09
8.72561e-09
1.05327e-08
7.81876e-09
9.87096e-09
9.17211e-09
1.09498e-08
8.636e-09
9.784e-09
9.00601e-09
7.77545e-09
1.00141e-08
9.15925e-09
7.58558e-09
8.77892e-09
9.37602e-09
8.54569e-09
1.01549e-08
7.54195e-09
9.67195e-09
9.34802e-09
1.09835e-08
1.11734e-08
1.98563e-08
9.76545e-09
1.19302e-08
1.33087e-08
1.52602e-08
1.1169e-08
2.02958e-08
1.04435e-08
9.75864e-09
1.37205e-08
1.26634e-08
1.00851e-08
1.28663e-08
1.26966e-08
1.11089e-08
1.82789e-08
1.00273e-08
1.35636e-08
1.26067e-08
1.72559e-08
2.22848e-08
2.61502e-08
1.42335e-08
1.64948e-08
1.69594e-08
1.95756e-08
2.20453e-08
2.86573e-08
1.47704e-08
1.36666e-08
1.75024e-08
1.73902e-08
1.35928e-08
1.70721e-08
1.75183e-08
2.0632e-08
2.7641e-08
1.36038e-08
1.79381e-08
1.74569e-08
2.90896e-08
2.92552e-08
4.60251e-08
1.87018e-08
2.02011e-08
2.34571e-08
2.56263e-08
3.10203e-08
4.31468e-08
1.90957e-08
1.85352e-08
2.35094e-08
2.34432e-08
1.89151e-08
2.3042e-08
2.3605e-08
3.03966e-08
4.28876e-08
1.88824e-08
2.34026e-08
2.35423e-08
4.47921e-08
4.81955e-08
7.10534e-08
2.4885e-08
2.84721e-08
3.23439e-08
3.24741e-08
5.18032e-08
7.35282e-08
2.46815e-08
2.57677e-08
3.21802e-08
3.14329e-08
2.56852e-08
3.15065e-08
3.1308e-08
4.84871e-08
7.07981e-08
2.53587e-08
3.14247e-08
3.17024e-08
6.95884e-08
8.21042e-08
1.05541e-07
3.52207e-08
3.34766e-08
4.27582e-08
4.33443e-08
7.3729e-08
9.72723e-08
3.50224e-08
3.41658e-08
4.23863e-08
4.3607e-08
3.38998e-08
4.15498e-08
4.29481e-08
7.51337e-08
1.14187e-07
3.4406e-08
4.3602e-08
4.22269e-08
1.05315e-07
1.11816e-07
1.49634e-07
4.52797e-08
4.86836e-08
5.62269e-08
6.03412e-08
1.17592e-07
1.72669e-07
4.51094e-08
4.59714e-08
5.58032e-08
5.48756e-08
4.53394e-08
5.77896e-08
5.88117e-08
1.22574e-07
1.4436e-07
4.47734e-08
5.52855e-08
5.87824e-08
1.65369e-07
1.62311e-07
2.18494e-07
6.09264e-08
6.22151e-08
7.21026e-08
7.14165e-08
1.75273e-07
1.90652e-07
6.04256e-08
6.03718e-08
7.15922e-08
7.45781e-08
6.33539e-08
6.99503e-08
7.00903e-08
1.57666e-07
2.28155e-07
6.30293e-08
7.33747e-08
7.05999e-08
2.07331e-07
2.27177e-07
2.81713e-07
7.60652e-08
7.76456e-08
9.22586e-08
9.39117e-08
2.09817e-07
3.05554e-07
7.53089e-08
7.70728e-08
9.22224e-08
9.0546e-08
7.39602e-08
9.39077e-08
9.9005e-08
2.34324e-07
2.67176e-07
7.48766e-08
9.10954e-08
9.87476e-08
3.23284e-07
3.01894e-07
3.65801e-07
9.76046e-08
9.72957e-08
1.15253e-07
1.1372e-07
3.13488e-07
3.49572e-07
9.80771e-08
9.79676e-08
1.14968e-07
1.13888e-07
1.06403e-07
1.14435e-07
1.16637e-07
2.88057e-07
3.70436e-07
1.05304e-07
1.13894e-07
1.15985e-07
3.79733e-07
3.7884e-07
4.37002e-07
1.21835e-07
1.21466e-07
1.38483e-07
1.41071e-07
3.72724e-07
4.51082e-07
1.20841e-07
1.19029e-07
1.37337e-07
1.40774e-07
1.20089e-07
1.40103e-07
1.34583e-07
3.81128e-07
4.43919e-07
1.19903e-07
1.41168e-07
1.34993e-07
4.25605e-07
4.5303e-07
5.13699e-07
1.44262e-07
1.46867e-07
1.70285e-07
1.68211e-07
4.6172e-07
5.20191e-07
1.43885e-07
1.46911e-07
1.7055e-07
1.67898e-07
1.42047e-07
1.6884e-07
1.74126e-07
4.62041e-07
5.11901e-07
1.42911e-07
1.66955e-07
1.74167e-07
5.24337e-07
5.30112e-07
5.91394e-07
1.79199e-07
1.77357e-07
2.00407e-07
2.02742e-07
5.3972e-07
5.82202e-07
1.79181e-07
1.77667e-07
1.99676e-07
2.02699e-07
1.82363e-07
2.01635e-07
1.98323e-07
5.28141e-07
5.89985e-07
1.81728e-07
2.02577e-07
1.97601e-07
5.82015e-07
6.06823e-07
6.54388e-07
2.09124e-07
2.09101e-07
2.42661e-07
2.342e-07
5.96095e-07
6.53365e-07
2.08106e-07
2.09313e-07
2.41947e-07
2.38214e-07
2.05538e-07
2.33604e-07
2.40571e-07
6.06304e-07
6.5614e-07
2.05289e-07
2.38942e-07
2.41653e-07
6.60814e-07
6.67811e-07
7.02072e-07
2.5151e-07
2.47208e-07
2.70862e-07
2.82129e-07
6.70207e-07
7.13222e-07
2.51185e-07
2.50161e-07
2.70719e-07
2.75104e-07
2.51977e-07
2.81411e-07
2.71784e-07
6.69174e-07
7.062e-07
2.52647e-07
2.74354e-07
2.71313e-07
7.00623e-07
7.14107e-07
7.68258e-07
2.7932e-07
2.88734e-07
3.19003e-07
3.08406e-07
7.23396e-07
7.50445e-07
2.78989e-07
2.81715e-07
3.18185e-07
3.14371e-07
2.78097e-07
3.08343e-07
3.12533e-07
7.17646e-07
7.61809e-07
2.775e-07
3.13922e-07
3.12323e-07
7.61591e-07
7.8368e-07
8.11971e-07
3.32654e-07
3.19345e-07
3.62926e-07
3.65796e-07
7.64608e-07
8.18154e-07
3.32152e-07
3.29291e-07
3.62159e-07
3.63784e-07
3.28633e-07
3.64656e-07
3.65466e-07
7.77846e-07
8.15937e-07
3.29137e-07
3.64203e-07
3.66342e-07
8.1678e-07
8.20725e-07
8.47704e-07
3.71753e-07
3.78224e-07
4.01905e-07
4.0478e-07
8.30083e-07
8.5118e-07
3.70473e-07
3.73083e-07
4.01625e-07
4.03333e-07
3.74308e-07
4.055e-07
4.01463e-07
8.24849e-07
8.47987e-07
3.74245e-07
4.02876e-07
4.00939e-07
8.48169e-07
8.58748e-07
8.89394e-07
4.14126e-07
4.15128e-07
4.52162e-07
4.50533e-07
8.59961e-07
8.87423e-07
4.14394e-07
4.13846e-07
4.51214e-07
4.51215e-07
4.13286e-07
4.50115e-07
4.54591e-07
8.58489e-07
8.89911e-07
4.1326e-07
4.51184e-07
4.54462e-07
8.9055e-07
8.99257e-07
9.25148e-07
4.63865e-07
4.62376e-07
5.00777e-07
4.99645e-07
8.97635e-07
9.24777e-07
4.62506e-07
4.65802e-07
5.00185e-07
5.02117e-07
4.65682e-07
4.99275e-07
4.9661e-07
9.00754e-07
9.25469e-07
4.65422e-07
5.0106e-07
4.96446e-07
9.23751e-07
9.34893e-07
9.59547e-07
5.13721e-07
5.12419e-07
5.49609e-07
5.50715e-07
9.34847e-07
9.60387e-07
5.13548e-07
5.11398e-07
5.48932e-07
5.48416e-07
5.10836e-07
5.52125e-07
5.53368e-07
9.33716e-07
9.58963e-07
5.10555e-07
5.49031e-07
5.53308e-07
9.62462e-07
9.68038e-07
9.91042e-07
5.6191e-07
5.63481e-07
6.00383e-07
5.98305e-07
9.68696e-07
9.89738e-07
5.60619e-07
5.63809e-07
5.99043e-07
6.01408e-07
5.64278e-07
5.96377e-07
5.98308e-07
9.69254e-07
9.93082e-07
5.64465e-07
6.01598e-07
5.97594e-07
9.90456e-07
9.99561e-07
1.02083e-06
6.11505e-07
6.0927e-07
6.44613e-07
6.47293e-07
9.98141e-07
1.02212e-06
6.10886e-07
6.11487e-07
6.44427e-07
6.46519e-07
6.11071e-07
6.47629e-07
6.47671e-07
1.00005e-06
1.01932e-06
6.10166e-07
6.44766e-07
6.49361e-07
1.02463e-06
1.02911e-06
1.05339e-06
6.58335e-07
6.6091e-07
6.9778e-07
6.95656e-07
1.03084e-06
1.05205e-06
6.57679e-07
6.59361e-07
6.96832e-07
6.95014e-07
6.60382e-07
6.95765e-07
6.9844e-07
1.02813e-06
1.05263e-06
6.62482e-07
6.95687e-07
6.9732e-07
1.05303e-06
1.06085e-06
1.07858e-06
7.07885e-07
7.06144e-07
7.38955e-07
7.40026e-07
1.05901e-06
1.07876e-06
7.07242e-07
7.06983e-07
7.37933e-07
7.42695e-07
7.08895e-07
7.39182e-07
7.37573e-07
1.06016e-06
1.08013e-06
7.07511e-07
7.41254e-07
7.40383e-07
1.07747e-06
1.0863e-06
1.10919e-06
7.51693e-07
7.51607e-07
7.87084e-07
7.84898e-07
1.08666e-06
1.10793e-06
7.50187e-07
7.52965e-07
7.85275e-07
7.81735e-07
7.49192e-07
7.85362e-07
7.87192e-07
1.0875e-06
1.10579e-06
7.52238e-07
7.82483e-07
7.85036e-07
1.10829e-06
1.1157e-06
1.13176e-06
7.96321e-07
7.95761e-07
8.24189e-07
8.26136e-07
1.11496e-06
1.13381e-06
7.94899e-07
7.93083e-07
8.23642e-07
8.29907e-07
7.98195e-07
8.26353e-07
8.25851e-07
1.11284e-06
1.13665e-06
7.95384e-07
8.28133e-07
8.27192e-07
1.13245e-06
1.13904e-06
1.16209e-06
8.35184e-07
8.35516e-07
8.68485e-07
8.65035e-07
1.14032e-06
1.15824e-06
8.34698e-07
8.4038e-07
8.68388e-07
8.64944e-07
8.35551e-07
8.65141e-07
8.68819e-07
1.14419e-06
1.15854e-06
8.3749e-07
8.65171e-07
8.65723e-07
1.15956e-06
1.16851e-06
1.18025e-06
8.77551e-07
8.74908e-07
8.99382e-07
9.00931e-07
1.16502e-06
1.18227e-06
8.77636e-07
8.72413e-07
8.9874e-07
8.97998e-07
8.78836e-07
8.99939e-07
9.00921e-07
1.16341e-06
1.17922e-06
8.74096e-07
8.97362e-07
8.97566e-07
1.18102e-06
1.18518e-06
1.20341e-06
9.06576e-07
9.08784e-07
9.33236e-07
9.35035e-07
1.18799e-06
1.20615e-06
9.05485e-07
9.07758e-07
9.326e-07
9.39127e-07
9.07489e-07
9.35181e-07
9.32763e-07
1.18664e-06
1.21058e-06
9.05693e-07
9.38952e-07
9.33965e-07
1.20341e-06
1.21108e-06
1.22988e-06
9.4303e-07
9.44375e-07
9.66418e-07
9.66549e-07
1.2133e-06
1.23014e-06
9.43236e-07
9.4874e-07
9.67953e-07
9.6766e-07
9.42118e-07
9.67519e-07
9.64129e-07
1.21734e-06
1.22944e-06
9.43762e-07
9.66152e-07
9.67003e-07
1.22769e-06
1.23472e-06
1.24632e-06
9.72562e-07
9.72454e-07
9.93425e-07
9.92999e-07
1.23469e-06
1.24601e-06
9.73684e-07
9.7221e-07
9.92527e-07
9.91623e-07
9.70411e-07
9.92822e-07
9.93097e-07
1.23322e-06
1.24483e-06
9.73574e-07
9.92765e-07
9.9563e-07
1.24796e-06
1.25171e-06
1.26187e-06
1.00047e-06
9.9991e-07
1.01472e-06
1.01397e-06
1.25134e-06
1.26066e-06
9.99261e-07
9.99147e-07
1.01377e-06
1.01482e-06
1.00026e-06
1.01322e-06
1.01328e-06
1.25086e-06
1.2622e-06
1.00214e-06
1.01593e-06
1.01368e-06
1.26155e-06
1.26532e-06
1.27796e-06
1.0184e-06
1.01778e-06
1.03626e-06
1.03631e-06
1.2641e-06
1.27777e-06
1.01762e-06
1.01868e-06
1.03578e-06
1.03675e-06
1.01683e-06
1.0364e-06
1.03544e-06
1.26549e-06
1.27747e-06
1.01699e-06
1.03628e-06
1.03489e-06
1.27729e-06
1.2844e-06
1.29175e-06
1.04326e-06
1.04346e-06
1.05289e-06
1.05321e-06
1.28449e-06
1.29191e-06
1.04284e-06
1.0437e-06
1.05265e-06
1.05297e-06
1.04298e-06
1.05312e-06
1.05332e-06
1.2839e-06
1.29119e-06
1.04229e-06
1.053e-06
1.05248e-06
1.29233e-06
1.29261e-06
1.27451e-06
1.05271e-06
1.05302e-06
1.04692e-06
1.04706e-06
1.29275e-06
1.27444e-06
1.05249e-06
1.05271e-06
1.04692e-06
1.04648e-06
1.05317e-06
1.04676e-06
1.04748e-06
1.29202e-06
1.27357e-06
1.05232e-06
1.04667e-06
1.04685e-06
1.27503e-06
1.27522e-06
1.28082e-06
1.04576e-06
1.04585e-06
1.0531e-06
1.05289e-06
1.27515e-06
1.28059e-06
1.04582e-06
1.04527e-06
1.05332e-06
1.05261e-06
1.04634e-06
1.053e-06
1.05368e-06
1.27427e-06
1.28008e-06
1.04581e-06
1.05245e-06
1.05351e-06
1.28124e-06
1.2891e-06
1.32972e-06
1.06123e-06
1.06096e-06
1.09434e-06
1.09401e-06
1.28881e-06
1.32944e-06
1.06145e-06
1.0608e-06
1.09447e-06
1.09405e-06
1.06177e-06
1.09434e-06
1.09471e-06
1.28844e-06
1.32933e-06
1.06161e-06
1.09345e-06
1.09448e-06
1.32974e-06
1.34057e-06
1.37392e-06
1.10533e-06
1.10507e-06
1.13179e-06
1.1318e-06
1.34032e-06
1.37389e-06
1.1054e-06
1.10506e-06
1.13174e-06
1.13151e-06
1.10566e-06
1.13181e-06
1.13208e-06
1.34021e-06
1.37364e-06
1.10539e-06
1.13102e-06
1.13182e-06
1.374e-06
1.38056e-06
1.38032e-06
1.13704e-06
1.13713e-06
1.14081e-06
1.14103e-06
1.38058e-06
1.38051e-06
1.13697e-06
1.13676e-06
1.1407e-06
1.14054e-06
1.13733e-06
1.14088e-06
1.14111e-06
1.38029e-06
1.38015e-06
1.1371e-06
1.14036e-06
1.14095e-06
1.38059e-06
1.38074e-06
1.34238e-06
1.13845e-06
1.13873e-06
1.11889e-06
1.11916e-06
1.38095e-06
1.34259e-06
1.13834e-06
1.13821e-06
1.11875e-06
1.1187e-06
1.13875e-06
1.11892e-06
1.11912e-06
1.38058e-06
1.34242e-06
1.13864e-06
1.11885e-06
1.11908e-06
1.34265e-06
1.33994e-06
1.28356e-06
1.10947e-06
1.1097e-06
1.07685e-06
1.07694e-06
1.34014e-06
1.28355e-06
1.10932e-06
1.1093e-06
1.07671e-06
1.07681e-06
1.10965e-06
1.07672e-06
1.07691e-06
1.33999e-06
1.28375e-06
1.10964e-06
1.07696e-06
1.0769e-06
1.28364e-06
1.28011e-06
1.2306e-06
1.06525e-06
1.0653e-06
1.03573e-06
1.03573e-06
1.28009e-06
1.23052e-06
1.06512e-06
1.06524e-06
1.0356e-06
1.03581e-06
1.06529e-06
1.03559e-06
1.03574e-06
1.2803e-06
1.23083e-06
1.06528e-06
1.03581e-06
1.03571e-06
1.23061e-06
1.23005e-06
1.22492e-06
1.02969e-06
1.02968e-06
1.02571e-06
1.0257e-06
1.22998e-06
1.22484e-06
1.02956e-06
1.02978e-06
1.02557e-06
1.02581e-06
1.0297e-06
1.02557e-06
1.02573e-06
1.23028e-06
1.2251e-06
1.02966e-06
1.02572e-06
1.02567e-06
1.22495e-06
1.23123e-06
1.27025e-06
1.0297e-06
1.02969e-06
1.05866e-06
1.05868e-06
1.23114e-06
1.27018e-06
1.02956e-06
1.0298e-06
1.05854e-06
1.05874e-06
1.02973e-06
1.05855e-06
1.05872e-06
1.23138e-06
1.27034e-06
1.02965e-06
1.05862e-06
1.05861e-06
1.27031e-06
1.28164e-06
1.32283e-06
1.06949e-06
1.06952e-06
1.09829e-06
1.09833e-06
1.28158e-06
1.32277e-06
1.06938e-06
1.06957e-06
1.09819e-06
1.09835e-06
1.06955e-06
1.09819e-06
1.09836e-06
1.28172e-06
1.32288e-06
1.06945e-06
1.09826e-06
1.09825e-06
1.32289e-06
1.33265e-06
1.36116e-06
1.1064e-06
1.10643e-06
1.12555e-06
1.12559e-06
1.33259e-06
1.3611e-06
1.1063e-06
1.10645e-06
1.12545e-06
1.12561e-06
1.10646e-06
1.12545e-06
1.12562e-06
1.33269e-06
1.3612e-06
1.10636e-06
1.12553e-06
1.12552e-06
1.36123e-06
1.36809e-06
1.38354e-06
1.13029e-06
1.13033e-06
1.14033e-06
1.14036e-06
1.36803e-06
1.38348e-06
1.1302e-06
1.13035e-06
1.14023e-06
1.14039e-06
1.13037e-06
1.14023e-06
1.14041e-06
1.36812e-06
1.38357e-06
1.13027e-06
1.14031e-06
1.14032e-06
1.38361e-06
1.38806e-06
1.39478e-06
1.14257e-06
1.14261e-06
1.14707e-06
1.1471e-06
1.388e-06
1.39473e-06
1.14248e-06
1.14264e-06
1.14697e-06
1.14714e-06
1.14266e-06
1.14698e-06
1.14715e-06
1.38809e-06
1.39482e-06
1.14256e-06
1.14706e-06
1.14706e-06
1.39486e-06
1.39785e-06
1.39986e-06
1.14804e-06
1.14807e-06
1.14992e-06
1.14995e-06
1.3978e-06
1.39981e-06
1.14795e-06
1.14811e-06
1.14982e-06
1.14999e-06
1.14813e-06
1.14983e-06
1.15001e-06
1.39789e-06
1.3999e-06
1.14804e-06
1.14991e-06
1.14992e-06
1.39994e-06
1.40216e-06
1.40179e-06
1.15029e-06
1.15032e-06
1.15086e-06
1.1509e-06
1.40211e-06
1.40174e-06
1.15019e-06
1.15036e-06
1.15076e-06
1.15093e-06
1.15038e-06
1.15077e-06
1.15095e-06
1.4022e-06
1.40183e-06
1.15029e-06
1.15085e-06
1.15086e-06
1.40187e-06
1.40374e-06
1.40213e-06
1.15093e-06
1.15097e-06
1.15097e-06
1.15101e-06
1.40369e-06
1.40207e-06
1.15084e-06
1.151e-06
1.15088e-06
1.15104e-06
1.15102e-06
1.15088e-06
1.15106e-06
1.40378e-06
1.40217e-06
1.15093e-06
1.15096e-06
1.15097e-06
1.40221e-06
1.404e-06
1.40202e-06
1.15096e-06
1.151e-06
1.15096e-06
1.151e-06
1.40395e-06
1.40197e-06
1.15087e-06
1.15103e-06
1.15087e-06
1.15103e-06
1.15105e-06
1.15088e-06
1.15105e-06
1.40404e-06
1.40206e-06
1.15096e-06
1.15095e-06
1.15096e-06
1.4021e-06
1.40394e-06
1.4024e-06
1.15101e-06
1.15104e-06
1.15111e-06
1.15114e-06
1.40389e-06
1.40234e-06
1.15091e-06
1.15107e-06
1.15101e-06
1.15118e-06
1.15109e-06
1.15102e-06
1.1512e-06
1.40398e-06
1.40244e-06
1.151e-06
1.1511e-06
1.1511e-06
1.40248e-06
1.40425e-06
1.40214e-06
1.15111e-06
1.15114e-06
1.15101e-06
1.15105e-06
1.4042e-06
1.40207e-06
1.15101e-06
1.15117e-06
1.15092e-06
1.15108e-06
1.15119e-06
1.15092e-06
1.1511e-06
1.40429e-06
1.40217e-06
1.1511e-06
1.151e-06
1.15101e-06
1.40222e-06
1.40395e-06
1.40221e-06
1.151e-06
1.15104e-06
1.15104e-06
1.15107e-06
1.40389e-06
1.40216e-06
1.15091e-06
1.15107e-06
1.15094e-06
1.15111e-06
1.15109e-06
1.15095e-06
1.15113e-06
1.40398e-06
1.40225e-06
1.151e-06
1.15103e-06
1.15104e-06
1.4023e-06
1.4041e-06
1.4023e-06
1.15107e-06
1.1511e-06
1.15105e-06
1.15108e-06
1.40406e-06
1.40223e-06
1.15097e-06
1.15113e-06
1.15096e-06
1.15112e-06
1.15116e-06
1.15096e-06
1.15114e-06
1.40415e-06
1.40233e-06
1.15106e-06
1.15104e-06
1.15104e-06
1.40237e-06
1.40413e-06
1.4021e-06
1.15104e-06
1.15107e-06
1.15102e-06
1.15106e-06
1.40407e-06
1.40204e-06
1.15094e-06
1.15111e-06
1.15093e-06
1.15109e-06
1.15113e-06
1.15093e-06
1.15111e-06
1.40416e-06
1.40214e-06
1.15103e-06
1.15101e-06
1.15102e-06
1.40218e-06
1.40398e-06
1.40233e-06
1.15103e-06
1.15106e-06
1.15105e-06
1.15108e-06
1.40393e-06
1.40228e-06
1.15093e-06
1.1511e-06
1.15095e-06
1.15112e-06
1.15112e-06
1.15096e-06
1.15114e-06
1.40402e-06
1.40237e-06
1.15103e-06
1.15104e-06
1.15104e-06
1.40241e-06
1.40418e-06
1.40212e-06
1.15105e-06
1.15108e-06
1.15102e-06
1.15105e-06
1.40412e-06
1.40207e-06
1.15095e-06
1.15112e-06
1.15092e-06
1.15109e-06
1.15114e-06
1.15093e-06
1.15111e-06
1.40421e-06
1.40216e-06
1.15105e-06
1.15101e-06
1.15102e-06
1.4022e-06
1.40398e-06
1.40234e-06
1.15102e-06
1.15106e-06
1.15104e-06
1.15108e-06
1.40394e-06
1.40228e-06
1.15093e-06
1.15109e-06
1.15095e-06
1.15111e-06
1.15111e-06
1.15095e-06
1.15113e-06
1.40403e-06
1.40238e-06
1.15102e-06
1.15103e-06
1.15104e-06
1.40242e-06
1.40419e-06
1.40212e-06
1.15104e-06
1.15108e-06
1.15102e-06
1.15105e-06
1.40413e-06
1.40208e-06
1.15095e-06
1.15111e-06
1.15092e-06
1.15109e-06
1.15114e-06
1.15093e-06
1.15111e-06
1.40422e-06
1.40217e-06
1.15104e-06
1.15101e-06
1.15102e-06
1.40221e-06
1.40401e-06
1.4023e-06
1.15103e-06
1.15107e-06
1.15103e-06
1.15106e-06
1.40398e-06
1.40223e-06
1.15093e-06
1.1511e-06
1.15093e-06
1.1511e-06
1.15112e-06
1.15094e-06
1.15112e-06
1.40406e-06
1.40234e-06
1.15103e-06
1.15102e-06
1.15102e-06
1.40238e-06
1.40414e-06
1.40217e-06
1.15103e-06
1.15107e-06
1.15102e-06
1.15106e-06
1.40408e-06
1.40214e-06
1.15094e-06
1.1511e-06
1.15092e-06
1.15109e-06
1.15112e-06
1.15093e-06
1.15111e-06
1.40417e-06
1.40222e-06
1.15103e-06
1.15101e-06
1.15102e-06
1.40226e-06
1.40407e-06
1.40223e-06
1.15103e-06
1.15107e-06
1.15102e-06
1.15105e-06
1.40404e-06
1.40215e-06
1.15094e-06
1.1511e-06
1.15092e-06
1.15109e-06
1.15112e-06
1.15093e-06
1.15111e-06
1.40413e-06
1.40225e-06
1.15103e-06
1.15101e-06
1.15101e-06
1.4023e-06
1.40407e-06
1.40226e-06
1.15103e-06
1.15107e-06
1.15101e-06
1.15105e-06
1.40399e-06
1.40223e-06
1.15094e-06
1.1511e-06
1.15092e-06
1.15108e-06
1.15112e-06
1.15093e-06
1.15111e-06
1.40409e-06
1.40232e-06
1.15103e-06
1.15101e-06
1.15101e-06
1.40236e-06
1.40415e-06
1.40215e-06
1.15103e-06
1.15107e-06
1.15101e-06
1.15105e-06
1.40411e-06
1.40211e-06
1.15094e-06
1.1511e-06
1.15091e-06
1.15108e-06
1.15113e-06
1.15092e-06
1.1511e-06
1.4042e-06
1.40221e-06
1.15103e-06
1.151e-06
1.15101e-06
1.40224e-06
1.40403e-06
1.40223e-06
1.15104e-06
1.15107e-06
1.151e-06
1.15104e-06
1.404e-06
1.40216e-06
1.15094e-06
1.15111e-06
1.15091e-06
1.15107e-06
1.15113e-06
1.15092e-06
1.1511e-06
1.4041e-06
1.40225e-06
1.15104e-06
1.151e-06
1.151e-06
1.40231e-06
1.40406e-06
1.40228e-06
1.15104e-06
1.15108e-06
1.15099e-06
1.15103e-06
1.404e-06
1.40223e-06
1.15095e-06
1.15111e-06
1.1509e-06
1.15107e-06
1.15114e-06
1.15091e-06
1.15109e-06
1.40408e-06
1.40232e-06
1.15104e-06
1.15099e-06
1.15099e-06
1.40237e-06
1.40415e-06
1.4022e-06
1.15105e-06
1.15108e-06
1.15099e-06
1.15102e-06
1.40409e-06
1.40218e-06
1.15095e-06
1.15112e-06
1.15089e-06
1.15106e-06
1.15114e-06
1.1509e-06
1.15108e-06
1.40417e-06
1.40229e-06
1.15105e-06
1.15098e-06
1.15099e-06
1.40235e-06
1.40412e-06
1.40214e-06
1.15106e-06
1.1511e-06
1.15097e-06
1.15101e-06
1.4041e-06
1.4021e-06
1.15097e-06
1.15113e-06
1.15088e-06
1.15104e-06
1.15116e-06
1.15088e-06
1.15106e-06
1.40419e-06
1.40221e-06
1.15106e-06
1.15096e-06
1.15097e-06
1.40223e-06
1.40403e-06
1.40221e-06
1.15108e-06
1.15111e-06
1.15096e-06
1.15099e-06
1.40401e-06
1.40212e-06
1.15098e-06
1.15115e-06
1.15087e-06
1.15103e-06
1.15117e-06
1.15087e-06
1.15105e-06
1.40412e-06
1.40221e-06
1.15107e-06
1.15095e-06
1.15096e-06
1.40227e-06
1.40405e-06
1.40228e-06
1.1511e-06
1.15114e-06
1.15095e-06
1.15098e-06
1.40399e-06
1.40215e-06
1.15101e-06
1.15117e-06
1.15086e-06
1.15102e-06
1.1512e-06
1.15086e-06
1.15104e-06
1.40407e-06
1.40228e-06
1.1511e-06
1.15094e-06
1.15094e-06
1.40232e-06
1.40414e-06
1.40198e-06
1.15114e-06
1.15117e-06
1.15055e-06
1.15059e-06
1.40399e-06
1.40199e-06
1.15105e-06
1.15121e-06
1.15045e-06
1.15061e-06
1.15123e-06
1.15046e-06
1.15064e-06
1.40412e-06
1.40208e-06
1.15113e-06
1.15053e-06
1.15053e-06
1.40211e-06
1.40375e-06
1.38286e-06
1.15084e-06
1.15088e-06
1.12946e-06
1.12949e-06
1.40376e-06
1.38283e-06
1.15074e-06
1.15091e-06
1.12943e-06
1.12945e-06
1.15094e-06
1.12949e-06
1.12953e-06
1.40382e-06
1.38288e-06
1.15083e-06
1.12949e-06
1.12949e-06
1.38291e-06
1.36131e-06
1.09237e-06
1.09239e-06
1.3613e-06
1.09237e-06
1.09235e-06
5.96707e-07
5.96677e-07
5.96726e-07
1.09243e-06
1.36134e-06
1.09242e-06
1.4877e-08
3.26217e-09
9.40861e-09
9.39239e-09
2.12438e-09
4.92049e-09
6.98795e-09
5.54189e-09
1.63478e-09
4.16626e-09
5.27176e-09
1.90865e-08
5.16874e-09
3.70632e-09
8.46032e-09
7.43414e-09
1.7432e-07
5.99093e-09
2.74707e-07
1.54106e-06
3.06243e-06
7.53291e-09
1.76011e-07
6.06171e-09
2.76318e-07
6.04404e-09
5.5927e-09
5.44783e-09
5.54369e-09
6.03212e-09
5.58825e-09
5.41253e-09
1.76277e-09
8.36556e-08
3.60505e-09
5.23133e-09
1.88263e-09
6.18e-08
3.57079e-09
1.57977e-06
3.15471e-06
1.6179e-09
3.55061e-09
1.08164e-07
5.70761e-09
1.64215e-09
3.46209e-09
8.44547e-08
2.15863e-07
2.19742e-07
4.76082e-09
1.8485e-07
1.88856e-07
1.64662e-08
4.86625e-07
1.17998e-08
7.13457e-07
6.85913e-06
9.93214e-06
1.69588e-08
4.86785e-07
1.20406e-08
7.04295e-07
6.03909e-09
5.58534e-09
5.4115e-09
5.55121e-09
6.06384e-09