/*--------------------------------*- C++ -*----------------------------------*\
| =========                 |                                                 |
| \\      /  F ield         | OpenFOAM: The Open Source CFD Toolbox           |
|  \\    /   O peration     | Version:  v2012                                 |
|   \\  /    A nd           | Website:  www.openfoam.com                      |
|    \\/     M anipulation  |                                                 |
\*---------------------------------------------------------------------------*/
FoamFile
{
    version     2.0;
    format      ascii;
    class       volScalarField;
    location    "262.5";
    object      k;
}
// * * * * * * * * * * * * * * * * * * * * * * * * * * * * * * * * * * * * * //

dimensions      [0 2 -2 0 0 0 0];


internalField   nonuniform List<scalar> 
171728
(
7.79669e-07
3.2396e-07
4.66596e-07
3.4656e-07
7.7103e-07
3.11566e-07
4.52591e-07
3.28919e-07
7.7994e-07
2.96477e-07
4.37336e-07
3.13119e-07
7.89196e-07
2.82911e-07
4.11908e-07
2.9876e-07
7.98933e-07
2.70788e-07
3.53036e-07
2.85966e-07
8.09666e-07
2.61949e-07
2.9243e-07
2.74211e-07
8.21285e-07
2.53066e-07
2.51405e-07
2.63556e-07
8.33949e-07
2.49107e-07
2.26636e-07
2.54299e-07
8.4719e-07
2.49333e-07
2.15532e-07
2.46683e-07
8.6079e-07
2.5371e-07
2.1073e-07
2.40643e-07
8.75245e-07
2.77816e-07
2.07772e-07
2.34852e-07
8.90107e-07
3.32862e-07
2.07877e-07
2.28956e-07
9.06132e-07
4.46679e-07
2.13946e-07
2.24419e-07
9.22529e-07
6.30628e-07
2.36449e-07
2.22211e-07
9.4113e-07
7.79289e-07
2.7807e-07
2.22558e-07
9.58516e-07
8.22257e-07
3.50573e-07
2.25848e-07
9.76465e-07
6.95259e-07
4.34297e-07
2.34699e-07
9.91293e-07
4.61899e-07
4.85092e-07
2.52175e-07
1.00082e-06
3.82259e-07
5.03658e-07
2.90766e-07
1.00799e-06
4.02534e-07
4.99874e-07
3.54848e-07
1.01453e-06
4.09279e-07
4.90714e-07
5.12946e-07
1.03197e-06
5.6133e-07
6.21823e-07
7.59151e-07
1.05013e-06
7.53821e-07
8.11486e-07
1.2203e-06
1.06811e-06
8.85338e-07
9.70302e-07
1.8135e-06
1.09027e-06
1.34361e-06
1.2465e-06
2.69827e-06
1.11666e-06
1.49394e-06
1.83291e-06
4.09327e-06
1.14827e-06
2.46846e-06
2.06988e-06
6.03194e-06
1.17982e-06
2.55663e-06
3.04012e-06
8.03934e-06
1.23059e-06
3.87999e-06
3.49945e-06
1.14577e-05
1.2944e-06
4.4604e-06
4.42116e-06
1.44261e-05
1.3465e-06
5.53185e-06
5.72508e-06
1.45923e-05
1.46156e-06
6.59247e-06
6.39265e-06
1.79356e-05
1.54503e-06
8.15921e-06
8.11093e-06
1.98528e-05
1.74822e-06
8.79909e-06
9.37588e-06
2.23464e-05
1.8652e-06
1.15121e-05
1.10161e-05
2.37178e-05
2.05387e-06
1.19051e-05
1.19442e-05
2.48804e-05
2.40962e-06
1.43614e-05
1.43989e-05
2.76301e-05
2.58776e-06
1.58671e-05
1.57518e-05
2.82438e-05
3.03157e-06
1.74941e-05
1.74041e-05
2.98871e-05
3.44774e-06
1.92268e-05
1.95296e-05
3.08193e-05
3.99711e-06
2.14531e-05
2.10587e-05
3.24866e-05
4.69181e-06
2.29564e-05
2.33803e-05
3.33277e-05
5.17504e-06
2.48495e-05
2.4697e-05
3.46718e-05
6.28423e-06
2.68224e-05
2.67512e-05
3.58935e-05
6.92224e-06
2.82983e-05
2.84976e-05
3.66622e-05
8.12425e-06
3.01046e-05
2.99585e-05
3.80076e-05
9.06635e-06
3.17521e-05
3.17573e-05
3.8922e-05
1.03377e-05
3.32357e-05
3.34171e-05
4.00751e-05
1.17841e-05
3.46079e-05
3.42614e-05
4.09794e-05
1.26005e-05
3.59376e-05
3.61641e-05
4.17695e-05
1.45437e-05
3.75757e-05
3.7533e-05
4.29413e-05
1.58235e-05
3.86385e-05
3.84839e-05
4.38785e-05
1.762e-05
3.9661e-05
3.97932e-05
4.46637e-05
1.8593e-05
4.06464e-05
4.06512e-05
4.51885e-05
2.08105e-05
4.23447e-05
4.23296e-05
4.66673e-05
2.18148e-05
4.20647e-05
4.20904e-05
4.60192e-05
2.15677e-05
4.15075e-05
4.15399e-05
4.53958e-05
2.36137e-05
4.39436e-05
4.39426e-05
4.7743e-05
2.8094e-05
4.70906e-05
4.70685e-05
5.05378e-05
3.07445e-05
4.8657e-05
4.86331e-05
5.19116e-05
3.11752e-05
4.82859e-05
4.82714e-05
5.10495e-05
2.86132e-05
4.5475e-05
4.54858e-05
4.85087e-05
2.51317e-05
4.23275e-05
4.23436e-05
4.54477e-05
2.30794e-05
4.09711e-05
4.0983e-05
4.41389e-05
2.41126e-05
4.27306e-05
4.27343e-05
4.59672e-05
2.94141e-05
4.59431e-05
4.59449e-05
4.87911e-05
3.38116e-05
4.8442e-05
4.84432e-05
5.10396e-05
3.6552e-05
4.99208e-05
4.9922e-05
5.23713e-05
3.78806e-05
5.06179e-05
5.0619e-05
5.30136e-05
3.84586e-05
5.0922e-05
5.09228e-05
5.32939e-05
3.86901e-05
5.10355e-05
5.10362e-05
5.34003e-05
3.87417e-05
5.10528e-05
5.10537e-05
5.34281e-05
3.87449e-05
5.1048e-05
5.10488e-05
5.34136e-05
3.87596e-05
5.10629e-05
5.10636e-05
5.34373e-05
3.87565e-05
5.10556e-05
5.10564e-05
5.34299e-05
3.87555e-05
5.10561e-05
5.1057e-05
5.34212e-05
3.8757e-05
5.1059e-05
5.10597e-05
5.34389e-05
3.87553e-05
5.10553e-05
5.10562e-05
5.34205e-05
3.87563e-05
5.10583e-05
5.10592e-05
5.3436e-05
3.87554e-05
5.10554e-05
5.10561e-05
5.34222e-05
3.87559e-05
5.10581e-05
5.1059e-05
5.34358e-05
3.87553e-05
5.10559e-05
5.10568e-05
5.34215e-05
3.87553e-05
5.10571e-05
5.10577e-05
5.34366e-05
3.87551e-05
5.10566e-05
5.10574e-05
5.34204e-05
3.87551e-05
5.10567e-05
5.10575e-05
5.34343e-05
3.87551e-05
5.10569e-05
5.10577e-05
5.34308e-05
3.87551e-05
5.10569e-05
5.10578e-05
5.34216e-05
3.87552e-05
5.10571e-05
5.10578e-05
5.34335e-05
3.87552e-05
5.10573e-05
5.1058e-05
5.34334e-05
3.87554e-05
5.10579e-05
5.10586e-05
5.34287e-05
3.87556e-05
5.1058e-05
5.10587e-05
5.34212e-05
3.8756e-05
5.10591e-05
5.10597e-05
5.3433e-05
3.87562e-05
5.10607e-05
5.10614e-05
5.34332e-05
3.87447e-05
5.10433e-05
5.10434e-05
5.34226e-05
3.82699e-05
4.98519e-05
4.9851e-05
5.30466e-05
3.63351e-07
3.45448e-07
3.16931e-07
3.53344e-07
3.13193e-07
3.46798e-07
7.98693e-07
8.09243e-07
8.05286e-07
7.91489e-07
3.18616e-07
3.40457e-07
3.55006e-07
3.73475e-07
3.38703e-07
3.49152e-07
3.62003e-07
3.45499e-07
3.6363e-07
3.31166e-07
3.5581e-07
3.20866e-07
3.5225e-07
3.35847e-07
3.32e-07
3.61826e-07
3.2074e-07
3.5339e-07
3.49131e-07
3.15154e-07
3.36813e-07
3.52077e-07
3.3881e-07
3.62817e-07
4.55924e-07
3.44494e-07
3.31868e-07
3.42704e-07
3.28827e-07
3.53174e-07
3.17772e-07
3.45446e-07
3.09354e-07
3.34087e-07
3.18547e-07
3.16785e-07
3.50823e-07
3.04985e-07
3.43438e-07
3.32921e-07
3.00198e-07
3.22006e-07
3.36002e-07
3.26457e-07
3.39205e-07
4.40662e-07
3.22356e-07
3.15734e-07
3.26143e-07
3.14163e-07
3.42875e-07
3.06704e-07
3.35298e-07
2.99372e-07
3.16087e-07
3.01918e-07
3.01186e-07
3.41084e-07
2.90417e-07
3.34007e-07
3.18613e-07
2.86287e-07
3.08906e-07
3.23841e-07
3.1602e-07
3.16566e-07
4.21962e-07
3.02016e-07
3.01021e-07
3.11721e-07
3.01027e-07
3.32909e-07
2.96884e-07
3.26175e-07
2.89827e-07
2.99327e-07
2.86809e-07
2.86795e-07
3.31483e-07
2.75296e-07
3.24522e-07
3.05639e-07
2.73334e-07
2.9623e-07
3.13482e-07
3.02931e-07
2.98131e-07
3.69153e-07
2.88466e-07
2.88031e-07
2.98848e-07
2.89114e-07
3.23907e-07
2.8744e-07
3.17888e-07
2.82241e-07
2.84498e-07
2.74102e-07
2.71471e-07
3.2227e-07
2.6101e-07
3.17374e-07
2.93233e-07
2.64237e-07
2.85045e-07
2.99786e-07
2.86248e-07
2.85612e-07
3.05936e-07
2.78036e-07
2.76176e-07
2.87197e-07
2.78538e-07
3.15978e-07
2.80899e-07
3.09546e-07
2.77978e-07
2.7214e-07
2.63166e-07
2.58035e-07
3.15833e-07
2.49564e-07
3.13119e-07
2.82527e-07
2.54992e-07
2.75818e-07
2.83245e-07
2.72693e-07
2.75661e-07
2.59989e-07
2.69176e-07
2.6539e-07
2.76807e-07
2.69202e-07
3.07335e-07
2.77909e-07
3.01712e-07
2.78953e-07
2.61384e-07
2.53677e-07
2.46917e-07
3.12493e-07
2.40415e-07
3.11957e-07
2.73825e-07
2.49597e-07
2.67805e-07
2.70792e-07
2.62555e-07
2.67072e-07
2.31323e-07
2.61351e-07
2.55867e-07
2.67665e-07
2.59922e-07
2.99871e-07
2.79902e-07
2.93996e-07
2.81415e-07
2.52195e-07
2.45787e-07
2.38689e-07
3.1204e-07
2.33744e-07
3.13223e-07
2.65927e-07
2.4894e-07
2.60987e-07
2.60859e-07
2.54322e-07
2.59703e-07
2.17399e-07
2.55249e-07
2.47938e-07
2.58541e-07
2.47514e-07
2.91699e-07
2.81495e-07
2.82562e-07
2.7952e-07
2.44253e-07
2.37298e-07
2.32089e-07
3.1409e-07
2.29038e-07
3.18797e-07
2.59751e-07
2.51617e-07
2.56585e-07
2.52841e-07
2.47067e-07
2.53982e-07
2.11756e-07
2.5051e-07
2.41365e-07
2.46446e-07
2.35452e-07
2.78991e-07
2.76166e-07
2.68361e-07
2.56963e-07
2.35559e-07
2.29121e-07
2.28844e-07
3.21176e-07
2.28977e-07
3.32798e-07
2.55891e-07
2.69726e-07
2.53855e-07
2.4667e-07
2.44432e-07
2.49507e-07
2.0819e-07
2.47273e-07
2.35339e-07
2.34724e-07
2.28333e-07
2.65316e-07
2.48511e-07
2.58064e-07
2.24959e-07
2.28808e-07
2.31817e-07
2.29244e-07
3.38769e-07
2.33789e-07
3.62303e-07
2.53174e-07
3.14662e-07
2.51619e-07
2.44555e-07
2.46042e-07
2.46668e-07
2.07719e-07
2.45203e-07
2.29363e-07
2.28031e-07
2.26365e-07
2.565e-07
2.19133e-07
2.53508e-07
2.10769e-07
2.32716e-07
2.54015e-07
2.36578e-07
3.71415e-07
2.49062e-07
3.99773e-07
2.51184e-07
4.10965e-07
2.50763e-07
2.46684e-07
2.51071e-07
2.44812e-07
2.1055e-07
2.44886e-07
2.24571e-07
2.26681e-07
2.29913e-07
2.53297e-07
2.10465e-07
2.53752e-07
2.14055e-07
2.57025e-07
3.05129e-07
2.54651e-07
4.08809e-07
2.76569e-07
4.31581e-07
2.50786e-07
5.82225e-07
2.51511e-07
2.52258e-07
2.59458e-07
2.45132e-07
2.29363e-07
2.46734e-07
2.2205e-07
2.31392e-07
2.41282e-07
2.54302e-07
2.22547e-07
2.58051e-07
2.68226e-07
3.10354e-07
3.75903e-07
2.86216e-07
4.37379e-07
3.22805e-07
4.47285e-07
2.5206e-07
7.51886e-07
2.5518e-07
2.6126e-07
2.71247e-07
2.47477e-07
2.65022e-07
2.50837e-07
2.21734e-07
2.4427e-07
2.61592e-07
2.5969e-07
2.87202e-07
2.65993e-07
3.61738e-07
3.84209e-07
4.23348e-07
3.37297e-07
4.48306e-07
3.87913e-07
4.41409e-07
2.567e-07
8.20799e-07
2.62526e-07
2.73696e-07
2.80581e-07
2.52446e-07
3.29839e-07
2.57955e-07
2.24063e-07
2.65946e-07
2.89582e-07
2.68211e-07
3.92767e-07
2.7747e-07
5.04259e-07
4.28184e-07
4.30173e-07
4.06413e-07
4.28247e-07
4.64321e-07
3.90252e-07
2.65348e-07
7.62021e-07
2.74394e-07
2.82438e-07
2.8876e-07
2.60443e-07
4.13877e-07
2.68549e-07
2.30692e-07
2.95597e-07
3.23309e-07
2.80909e-07
5.44863e-07
2.97929e-07
6.353e-07
4.3234e-07
4.16982e-07
4.82593e-07
3.80956e-07
5.36732e-07
3.51345e-07
2.79149e-07
5.06658e-07
2.93069e-07
2.92207e-07
2.99579e-07
2.72991e-07
4.73462e-07
2.85693e-07
2.4617e-07
3.31839e-07
3.62461e-07
3.0127e-07
6.5956e-07
3.32229e-07
7.18614e-07
4.16397e-07
4.45788e-07
5.48598e-07
3.45025e-07
5.89518e-07
3.4738e-07
3.00229e-07
3.91927e-07
3.22585e-07
3.02459e-07
3.26145e-07
2.92508e-07
5.06621e-07
3.14003e-07
2.79826e-07
3.83063e-07
3.90501e-07
3.43619e-07
7.22538e-07
3.59188e-07
7.13899e-07
4.50054e-07
4.54445e-07
5.99094e-07
3.485e-07
5.90267e-07
3.63989e-07
3.34748e-07
3.91731e-07
3.65603e-07
3.28727e-07
3.63341e-07
3.25578e-07
4.98329e-07
3.56143e-07
3.39737e-07
4.09408e-07
5.19131e-07
3.83419e-07
7.06883e-07
4.46038e-07
6.38782e-07
4.78073e-07
4.32126e-07
5.91468e-07
3.90056e-07
5.82795e-07
4.32547e-07
3.81232e-07
4.07246e-07
4.39739e-07
4.0869e-07
4.54766e-07
3.71538e-07
4.8946e-07
4.32869e-07
4.84017e-07
5.18385e-07
7.24136e-07
4.48468e-07
6.36131e-07
5.55324e-07
7.23565e-07
4.35276e-07
8.4655e-07
5.58885e-07
4.40608e-07
5.87922e-07
5.33787e-07
4.58279e-07
5.38271e-07
5.50659e-07
4.61583e-07
6.89092e-07
4.52134e-07
5.84864e-07
5.34901e-07
7.01901e-07
9.12642e-07
1.01281e-06
6.21285e-07
7.69201e-07
6.75137e-07
9.31795e-07
9.5022e-07
1.13873e-06
6.53367e-07
5.64171e-07
7.19999e-07
7.13055e-07
5.71241e-07
7.0577e-07
7.10559e-07
7.95594e-07
1.07632e-06
5.61826e-07
7.63891e-07
6.98681e-07
1.05706e-06
1.0243e-06
1.89479e-06
7.04491e-07
9.47442e-07
9.46609e-07
9.67466e-07
1.25384e-06
1.32175e-06
7.46622e-07
7.63001e-07
9.83577e-07
8.58942e-07
7.64952e-07
8.04005e-07
9.05598e-07
1.1423e-06
1.50834e-06
7.52788e-07
8.86766e-07
9.18314e-07
1.6552e-06
1.96896e-06
2.16682e-06
9.74434e-07
1.06106e-06
1.18956e-06
1.41671e-06
1.40045e-06
3.41632e-06
1.00372e-06
9.82915e-07
1.15731e-06
1.18975e-06
9.98774e-07
1.3379e-06
1.19426e-06
1.60934e-06
2.7525e-06
9.88124e-07
1.21223e-06
1.17631e-06
2.45263e-06
2.62406e-06
4.04648e-06
1.31898e-06
1.41767e-06
1.67153e-06
1.4366e-06
3.42538e-06
2.52709e-06
1.31506e-06
1.23318e-06
1.63452e-06
1.70307e-06
1.23865e-06
1.35089e-06
1.68953e-06
2.84509e-06
4.07183e-06
1.27393e-06
1.71293e-06
1.65871e-06
3.82606e-06
4.13807e-06
5.12884e-06
1.7481e-06
1.57455e-06
2.00727e-06
2.47693e-06
2.88425e-06
7.15226e-06
1.72629e-06
1.82518e-06
2.00448e-06
1.95559e-06
1.76012e-06
2.38102e-06
2.0256e-06
4.62374e-06
4.97073e-06
1.70659e-06
1.94507e-06
2.07476e-06
5.04616e-06
5.41411e-06
8.03991e-06
2.241e-06
2.61145e-06
2.751e-06
2.65999e-06
7.31041e-06
6.23637e-06
2.22172e-06
2.05093e-06
2.76069e-06
2.99989e-06
2.41402e-06
2.48578e-06
2.82879e-06
5.00824e-06
8.70594e-06
2.42816e-06
2.96123e-06
2.8096e-06
8.14911e-06
8.39347e-06
9.16686e-06
2.82124e-06
2.70128e-06
3.44585e-06
3.73455e-06
6.26719e-06
1.13716e-05
2.81708e-06
3.12652e-06
3.38669e-06
3.21922e-06
2.81844e-06
3.73774e-06
3.2793e-06
9.0424e-06
8.77656e-06
2.81106e-06
3.17917e-06
3.41241e-06
9.42395e-06
9.84222e-06
1.27787e-05
3.6668e-06
3.88675e-06
4.25673e-06
4.0596e-06
1.1816e-05
1.13475e-05
3.66228e-06
3.40891e-06
4.31591e-06
4.39995e-06
4.00097e-06
4.08357e-06
4.7506e-06
8.89118e-06
1.31127e-05
4.04156e-06
4.33124e-06
4.64035e-06
1.44159e-05
1.31434e-05
1.47271e-05
4.57795e-06
4.34652e-06
5.37872e-06
5.41417e-06
1.15224e-05
1.57789e-05
4.59657e-06
4.47265e-06
5.23719e-06
5.34044e-06
4.79151e-06
5.26257e-06
5.09214e-06
1.34435e-05
1.46453e-05
4.73857e-06
5.4392e-06
5.06655e-06
1.41348e-05
1.52161e-05
1.69721e-05
5.46741e-06
5.65348e-06
6.22853e-06
6.19939e-06
1.60841e-05
1.69536e-05
5.33422e-06
5.67255e-06
6.29961e-06
6.10604e-06
5.15786e-06
6.34926e-06
6.38129e-06
1.54615e-05
1.70498e-05
5.1459e-06
6.08129e-06
6.48536e-06
1.69137e-05
1.74962e-05
1.96132e-05
6.78473e-06
6.50941e-06
7.67582e-06
7.91665e-06
1.77173e-05
1.96261e-05
6.82514e-06
6.46784e-06
7.6878e-06
7.9349e-06
7.07384e-06
7.81486e-06
7.85203e-06
1.73692e-05
1.9538e-05
7.10567e-06
7.89271e-06
7.76679e-06
1.97637e-05
2.00569e-05
2.1726e-05
7.78087e-06
8.23269e-06
9.18381e-06
8.57315e-06
1.9887e-05
2.12268e-05
7.78114e-06
8.15038e-06
9.09459e-06
8.64408e-06
7.88174e-06
8.55384e-06
8.60094e-06
2.00614e-05
2.16917e-05
7.79805e-06
8.72284e-06
8.70608e-06
2.14346e-05
2.22673e-05
2.33154e-05
9.8371e-06
8.80684e-06
1.06166e-05
1.10627e-05
2.17394e-05
2.39755e-05
9.77721e-06
9.27201e-06
1.06187e-05
1.09109e-05
9.51896e-06
1.10319e-05
1.08728e-05
2.21517e-05
2.3582e-05
9.62218e-06
1.08849e-05
1.08709e-05
2.36516e-05
2.34704e-05
2.47792e-05
1.06597e-05
1.15589e-05
1.15429e-05
1.19138e-05
2.44126e-05
2.46134e-05
1.0665e-05
1.10586e-05
1.15047e-05
1.13883e-05
1.09281e-05
1.18543e-05
1.11477e-05
2.38418e-05
2.45288e-05
1.09145e-05
1.13498e-05
1.10995e-05
2.42153e-05
2.55225e-05
2.71818e-05
1.24296e-05
1.19484e-05
1.40906e-05
1.34382e-05
2.47728e-05
2.6778e-05
1.23823e-05
1.19609e-05
1.41162e-05
1.40269e-05
1.17e-05
1.35286e-05
1.41316e-05
2.50404e-05
2.72501e-05
1.16014e-05
1.40051e-05
1.42772e-05
2.7371e-05
2.73835e-05
2.79082e-05
1.44053e-05
1.4431e-05
1.51903e-05
1.55749e-05
2.74809e-05
2.83832e-05
1.43793e-05
1.43773e-05
1.5105e-05
1.54171e-05
1.4557e-05
1.55451e-05
1.52594e-05
2.75372e-05
2.80562e-05
1.46603e-05
1.55016e-05
1.51831e-05
2.79852e-05
2.82086e-05
2.94453e-05
1.55559e-05
1.58147e-05
1.71212e-05
1.70567e-05
2.85557e-05
2.93317e-05
1.55491e-05
1.57528e-05
1.71516e-05
1.67944e-05
1.54849e-05
1.71258e-05
1.72326e-05
2.83179e-05
2.92671e-05
1.5444e-05
1.67468e-05
1.725e-05
2.94854e-05
2.97849e-05
3.06489e-05
1.75895e-05
1.74867e-05
1.88652e-05
1.88265e-05
2.96712e-05
3.05837e-05
1.75566e-05
1.73755e-05
1.87916e-05
1.93157e-05
1.78697e-05
1.86946e-05
1.86354e-05
2.96665e-05
3.08925e-05
1.78638e-05
1.92519e-05
1.86328e-05
3.05826e-05
3.09659e-05
3.20289e-05
1.93931e-05
1.93119e-05
2.08055e-05
2.07521e-05
3.09136e-05
3.20747e-05
1.93591e-05
1.96292e-05
2.0857e-05
2.03846e-05
1.89735e-05
2.09426e-05
2.10278e-05
3.11239e-05
3.17283e-05
1.89757e-05
2.04456e-05
2.09906e-05
3.21193e-05
3.22947e-05
3.3143e-05
2.11855e-05
2.1273e-05
2.2773e-05
2.27636e-05
3.23671e-05
3.31249e-05
2.12058e-05
2.10008e-05
2.26409e-05
2.29625e-05
2.15346e-05
2.26447e-05
2.25477e-05
3.20727e-05
3.34284e-05
2.15327e-05
2.29843e-05
2.25642e-05
3.31091e-05
3.34528e-05
3.42312e-05
2.3297e-05
2.31056e-05
2.41888e-05
2.42366e-05
3.33714e-05
3.42239e-05
2.31909e-05
2.33166e-05
2.42451e-05
2.4325e-05
2.30236e-05
2.42435e-05
2.43842e-05
3.36571e-05
3.41479e-05
2.29674e-05
2.42484e-05
2.43704e-05
3.43653e-05
3.44579e-05
3.55937e-05
2.45808e-05
2.48176e-05
2.64825e-05
2.64248e-05
3.45455e-05
3.56171e-05
2.46248e-05
2.48359e-05
2.64227e-05
2.62252e-05
2.47872e-05
2.64565e-05
2.64728e-05
3.43945e-05
3.55372e-05
2.49006e-05
2.63107e-05
2.64926e-05
3.56265e-05
3.5909e-05
3.64723e-05
2.69766e-05
2.678e-05
2.77893e-05
2.79114e-05
3.58315e-05
3.64584e-05
2.6931e-05
2.66219e-05
2.781e-05
2.81487e-05
2.70133e-05
2.78901e-05
2.78938e-05
3.58078e-05
3.66157e-05
2.68672e-05
2.8008e-05
2.78709e-05
3.64722e-05
3.66622e-05
3.78171e-05
2.81845e-05
2.83616e-05
2.9885e-05
2.96586e-05
3.67205e-05
3.7705e-05
2.818e-05
2.86457e-05
2.97682e-05
2.95416e-05
2.81595e-05
2.96321e-05
2.96582e-05
3.68854e-05
3.76169e-05
2.83271e-05
2.96934e-05
2.97038e-05
3.77119e-05
3.80965e-05
3.85949e-05
3.03262e-05
3.00866e-05
3.11499e-05
3.13857e-05
3.79506e-05
3.88013e-05
3.02135e-05
2.98138e-05
3.11273e-05
3.13234e-05
3.02269e-05
3.14228e-05
3.13709e-05
3.77927e-05
3.87529e-05
3.00752e-05
3.11826e-05
3.13041e-05
3.87299e-05
3.87665e-05
3.98986e-05
3.14639e-05
3.17348e-05
3.29267e-05
3.27711e-05
3.9026e-05
3.97125e-05
3.14508e-05
3.18987e-05
3.291e-05
3.31105e-05
3.16137e-05
3.28e-05
3.28377e-05
3.91005e-05
3.99782e-05
3.17525e-05
3.31714e-05
3.30266e-05
3.98066e-05
4.02107e-05
4.08472e-05
3.34375e-05
3.31906e-05
3.44468e-05
3.43684e-05
3.99439e-05
4.07969e-05
3.3442e-05
3.33532e-05
3.44863e-05
3.40203e-05
3.34002e-05
3.43572e-05
3.459e-05
4.01023e-05
4.04093e-05
3.34015e-05
3.39664e-05
3.42727e-05
4.08367e-05
4.09525e-05
4.14109e-05
3.46456e-05
3.46619e-05
3.53947e-05
3.55319e-05
4.09762e-05
4.16031e-05
3.4647e-05
3.43046e-05
3.52562e-05
3.55369e-05
3.47669e-05
3.546e-05
3.54263e-05
4.06038e-05
4.17883e-05
3.45022e-05
3.55983e-05
3.53994e-05
4.1516e-05
4.16817e-05
4.28832e-05
3.58316e-05
3.59644e-05
3.71789e-05
3.7237e-05
4.18661e-05
4.29365e-05
3.57109e-05
3.61139e-05
3.72632e-05
3.75141e-05
3.58621e-05
3.73376e-05
3.71144e-05
4.21229e-05
4.30343e-05
3.587e-05
3.74077e-05
3.71793e-05
4.27712e-05
4.30837e-05
4.35566e-05
3.74419e-05
3.7469e-05
3.82109e-05
3.81892e-05
4.31053e-05
4.35432e-05
3.75652e-05
3.76723e-05
3.82425e-05
3.81026e-05
3.733e-05
3.82487e-05
3.8173e-05
4.31286e-05
4.33797e-05
3.74303e-05
3.80496e-05
3.83566e-05
4.35977e-05
4.37669e-05
4.45417e-05
3.86251e-05
3.85934e-05
3.96622e-05
3.95827e-05
4.37608e-05
4.44794e-05
3.8606e-05
3.84848e-05
3.9593e-05
3.95772e-05
3.86504e-05
3.957e-05
3.96762e-05
4.36072e-05
4.45426e-05
3.88225e-05
3.96557e-05
3.97442e-05
4.46066e-05
4.46332e-05
4.49754e-05
3.97778e-05
3.96904e-05
4.02312e-05
4.0177e-05
4.45591e-05
4.49225e-05
3.97164e-05
3.9717e-05
4.02101e-05
4.02293e-05
3.97642e-05
4.01482e-05
4.01169e-05
4.4641e-05
4.49588e-05
3.98141e-05
4.02115e-05
4.01093e-05
4.48844e-05
4.52657e-05
4.65398e-05
4.06804e-05
4.06443e-05
4.21225e-05
4.21296e-05
4.52366e-05
4.65642e-05
4.06585e-05
4.06864e-05
4.21041e-05
4.21377e-05
4.05998e-05
4.21449e-05
4.21233e-05
4.52464e-05
4.65416e-05
4.05715e-05
4.21153e-05
4.20933e-05
4.65522e-05
4.66525e-05
4.60906e-05
4.23264e-05
4.2341e-05
4.23074e-05
4.23298e-05
4.66767e-05
4.61034e-05
4.23083e-05
4.23374e-05
4.22899e-05
4.23102e-05
4.23335e-05
4.23145e-05
4.23164e-05
4.66566e-05
4.60885e-05
4.23022e-05
4.23214e-05
4.22852e-05
4.61021e-05
4.6007e-05
4.5301e-05
4.20687e-05
4.20969e-05
4.1512e-05
4.15344e-05
4.60191e-05
4.53061e-05
4.20545e-05
4.20639e-05
4.15106e-05
4.15052e-05
4.20786e-05
4.15043e-05
4.15277e-05
4.60031e-05
4.52903e-05
4.20496e-05
4.15365e-05
4.15154e-05
4.532e-05
4.53772e-05
4.72326e-05
4.15153e-05
4.15355e-05
4.3087e-05
4.30683e-05
4.53784e-05
4.72139e-05
4.15155e-05
4.15086e-05
4.31054e-05
4.30868e-05
4.15313e-05
4.30841e-05
4.31009e-05
4.53668e-05
4.72232e-05
4.15218e-05
4.30961e-05
4.31166e-05
4.72342e-05
4.77461e-05
5.00823e-05
4.39442e-05
4.39234e-05
4.63836e-05
4.63684e-05
4.77281e-05
5.00712e-05
4.39598e-05
4.39472e-05
4.63928e-05
4.63858e-05
4.39539e-05
4.63844e-05
4.63864e-05
4.77375e-05
5.0072e-05
4.3961e-05
4.63642e-05
4.6382e-05
5.00737e-05
5.05453e-05
5.1808e-05
4.70895e-05
4.70789e-05
4.84628e-05
4.84656e-05
5.05366e-05
5.18118e-05
4.70969e-05
4.70892e-05
4.8467e-05
4.84558e-05
4.70924e-05
4.84685e-05
4.8469e-05
5.05343e-05
5.17952e-05
4.70875e-05
4.84446e-05
4.84663e-05
5.18119e-05
5.19061e-05
5.1196e-05
4.86495e-05
4.86558e-05
4.86346e-05
4.86492e-05
5.19119e-05
5.12141e-05
4.86532e-05
4.86412e-05
4.86372e-05
4.86244e-05
4.86571e-05
4.86468e-05
4.86459e-05
5.18933e-05
5.11901e-05
4.86553e-05
4.86256e-05
4.86465e-05
5.12108e-05
5.10343e-05
4.87585e-05
4.82689e-05
4.82935e-05
4.62398e-05
4.62533e-05
5.10528e-05
4.87652e-05
4.82692e-05
4.82559e-05
4.62364e-05
4.62299e-05
4.82842e-05
4.62437e-05
4.6246e-05
5.10296e-05
4.87621e-05
4.82882e-05
4.62498e-05
4.62519e-05
4.87658e-05
4.85026e-05
4.56819e-05
4.54734e-05
4.54835e-05
4.30421e-05
4.30449e-05
4.85078e-05
4.5681e-05
4.54701e-05
4.54662e-05
4.30391e-05
4.30429e-05
4.54771e-05
4.30391e-05
4.30408e-05
4.8507e-05
4.56917e-05
4.54829e-05
4.30554e-05
4.30454e-05
4.56818e-05
4.54479e-05
4.41262e-05
4.23307e-05
4.2332e-05
4.10703e-05
4.1069e-05
4.54468e-05
4.4124e-05
4.23278e-05
4.23336e-05
4.10672e-05
4.10765e-05
4.23287e-05
4.10662e-05
4.10683e-05
4.54576e-05
4.41354e-05
4.23328e-05
4.10791e-05
4.10706e-05
4.41256e-05
4.41394e-05
4.54513e-05
4.09751e-05
4.09735e-05
4.18337e-05
4.18317e-05
4.41373e-05
4.54492e-05
4.0972e-05
4.09816e-05
4.18308e-05
4.18399e-05
4.09734e-05
4.1831e-05
4.18352e-05
4.41484e-05
4.54559e-05
4.09752e-05
4.18347e-05
4.18333e-05
4.54528e-05
4.59659e-05
4.83095e-05
4.27333e-05
4.27323e-05
4.51875e-05
4.51881e-05
4.59643e-05
4.83088e-05
4.27308e-05
4.27381e-05
4.51857e-05
4.51896e-05
4.2735e-05
4.51866e-05
4.51894e-05
4.59699e-05
4.83113e-05
4.27334e-05
4.51889e-05
4.5188e-05
4.8311e-05
4.87899e-05
5.06981e-05
4.5944e-05
4.59448e-05
4.79105e-05
4.79114e-05
4.87893e-05
5.06976e-05
4.59426e-05
4.59455e-05
4.79096e-05
4.79108e-05
4.5946e-05
4.79106e-05
4.79125e-05
4.87913e-05
5.06983e-05
4.59446e-05
4.79118e-05
4.79114e-05
5.06993e-05
5.10385e-05
5.21801e-05
4.8442e-05
4.84428e-05
4.96399e-05
4.96406e-05
5.1038e-05
5.21797e-05
4.84414e-05
4.84421e-05
4.96395e-05
4.96398e-05
4.84441e-05
4.96407e-05
4.96423e-05
5.10386e-05
5.21801e-05
4.84432e-05
4.96419e-05
4.9642e-05
5.21817e-05
5.23696e-05
5.29136e-05
4.99199e-05
4.99205e-05
5.04917e-05
5.04921e-05
5.23694e-05
5.29134e-05
4.99197e-05
4.99199e-05
5.04915e-05
5.04917e-05
4.99226e-05
5.04931e-05
5.04946e-05
5.23696e-05
5.29138e-05
4.99223e-05
5.04942e-05
5.04946e-05
5.29157e-05
5.30116e-05
5.32392e-05
5.06164e-05
5.06167e-05
5.08666e-05
5.0867e-05
5.30115e-05
5.32393e-05
5.06163e-05
5.06164e-05
5.08664e-05
5.08666e-05
5.06193e-05
5.08684e-05
5.08695e-05
5.30118e-05
5.32395e-05
5.06194e-05
5.08693e-05
5.08696e-05
5.32413e-05
5.32918e-05
5.33706e-05
5.092e-05
5.09204e-05
5.10173e-05
5.10178e-05
5.3292e-05
5.33709e-05
5.09199e-05
5.092e-05
5.10172e-05
5.10172e-05
5.0923e-05
5.10193e-05
5.10202e-05
5.32921e-05
5.33709e-05
5.09231e-05
5.102e-05
5.10204e-05
5.33727e-05
5.33982e-05
5.34067e-05
5.10334e-05
5.1034e-05
5.10507e-05
5.10512e-05
5.33985e-05
5.34069e-05
5.10335e-05
5.10333e-05
5.10507e-05
5.10505e-05
5.10364e-05
5.10526e-05
5.10537e-05
5.33984e-05
5.34069e-05
5.10367e-05
5.10535e-05
5.1054e-05
5.34089e-05
5.34259e-05
5.33963e-05
5.10508e-05
5.10513e-05
5.10458e-05
5.10463e-05
5.34261e-05
5.33961e-05
5.10509e-05
5.10507e-05
5.10459e-05
5.10458e-05
5.10539e-05
5.10478e-05
5.1049e-05
5.3426e-05
5.33966e-05
5.10541e-05
5.10487e-05
5.10491e-05
5.33986e-05
5.34113e-05
5.34149e-05
5.10459e-05
5.10464e-05
5.10585e-05
5.10591e-05
5.34112e-05
5.34154e-05
5.10459e-05
5.10458e-05
5.10585e-05
5.10584e-05
5.10491e-05
5.10607e-05
5.10615e-05
5.34115e-05
5.34152e-05
5.10492e-05
5.10613e-05
5.10616e-05
5.3417e-05
5.34353e-05
5.3414e-05
5.10608e-05
5.10614e-05
5.10574e-05
5.10577e-05
5.34358e-05
5.34137e-05
5.10609e-05
5.10607e-05
5.10574e-05
5.10571e-05
5.10637e-05
5.10593e-05
5.10602e-05
5.34355e-05
5.34139e-05
5.10639e-05
5.106e-05
5.10604e-05
5.34158e-05
5.3428e-05
5.3399e-05
5.10536e-05
5.10541e-05
5.10517e-05
5.10523e-05
5.34278e-05
5.33993e-05
5.10537e-05
5.10535e-05
5.10518e-05
5.10517e-05
5.10566e-05
5.10538e-05
5.10548e-05
5.34279e-05
5.33995e-05
5.10568e-05
5.10547e-05
5.10551e-05
5.34013e-05
5.34187e-05
5.3419e-05
5.10539e-05
5.10545e-05
5.10576e-05
5.10581e-05
5.34192e-05
5.34193e-05
5.1054e-05
5.1054e-05
5.10576e-05
5.10575e-05
5.10571e-05
5.10596e-05
5.10606e-05
5.34193e-05
5.34193e-05
5.10574e-05
5.10604e-05
5.10607e-05
5.34212e-05
5.34369e-05
5.34029e-05
5.1057e-05
5.10574e-05
5.10532e-05
5.10537e-05
5.34371e-05
5.34025e-05
5.10571e-05
5.10569e-05
5.10534e-05
5.10532e-05
5.10599e-05
5.10552e-05
5.10562e-05
5.3437e-05
5.34027e-05
5.106e-05
5.10561e-05
5.10564e-05
5.34044e-05
5.34188e-05
5.34131e-05
5.10533e-05
5.10538e-05
5.10556e-05
5.10562e-05
5.34186e-05
5.34139e-05
5.10534e-05
5.10532e-05
5.10556e-05
5.10556e-05
5.10563e-05
5.10577e-05
5.10587e-05
5.34187e-05
5.34141e-05
5.10565e-05
5.10587e-05
5.1059e-05
5.3416e-05
5.34333e-05
5.34058e-05
5.10562e-05
5.10568e-05
5.10537e-05
5.10542e-05
5.3434e-05
5.34054e-05
5.10564e-05
5.10562e-05
5.10537e-05
5.10535e-05
5.10593e-05
5.10558e-05
5.10567e-05
5.34341e-05
5.34054e-05
5.10595e-05
5.10565e-05
5.10568e-05
5.34073e-05
5.34206e-05
5.3413e-05
5.10532e-05
5.10538e-05
5.10555e-05
5.10562e-05
5.34203e-05
5.34141e-05
5.10532e-05
5.10531e-05
5.10557e-05
5.10556e-05
5.10563e-05
5.10577e-05
5.10587e-05
5.34203e-05
5.3414e-05
5.10564e-05
5.10586e-05
5.10589e-05
5.34157e-05
5.34332e-05
5.34045e-05
5.1056e-05
5.10566e-05
5.10535e-05
5.10541e-05
5.34341e-05
5.34036e-05
5.10562e-05
5.10561e-05
5.10535e-05
5.10534e-05
5.10592e-05
5.10556e-05
5.10566e-05
5.3434e-05
5.34041e-05
5.10594e-05
5.10565e-05
5.10569e-05
5.34063e-05
5.34195e-05
5.34147e-05
5.10537e-05
5.10544e-05
5.10547e-05
5.10556e-05
5.3419e-05
5.34163e-05
5.10536e-05
5.10536e-05
5.10549e-05
5.1055e-05
5.10568e-05
5.1057e-05
5.10579e-05
5.34193e-05
5.34159e-05
5.10571e-05
5.10575e-05
5.10579e-05
5.34173e-05
5.34342e-05
5.34016e-05
5.10548e-05
5.10556e-05
5.1054e-05
5.10547e-05
5.34352e-05
5.34011e-05
5.1055e-05
5.10551e-05
5.1054e-05
5.1054e-05
5.1058e-05
5.10562e-05
5.10571e-05
5.34349e-05
5.34014e-05
5.1058e-05
5.1057e-05
5.10573e-05
5.34035e-05
5.3418e-05
5.3417e-05
5.10543e-05
5.10552e-05
5.10541e-05
5.10547e-05
5.34187e-05
5.34164e-05
5.10543e-05
5.10544e-05
5.10542e-05
5.10541e-05
5.10575e-05
5.10563e-05
5.10572e-05
5.34186e-05
5.34167e-05
5.10576e-05
5.1057e-05
5.10573e-05
5.34188e-05
5.34334e-05
5.34041e-05
5.10545e-05
5.10551e-05
5.10539e-05
5.10547e-05
5.34313e-05
5.3408e-05
5.10546e-05
5.10545e-05
5.10538e-05
5.1054e-05
5.10576e-05
5.10562e-05
5.10571e-05
5.34318e-05
5.34078e-05
5.10577e-05
5.1057e-05
5.10572e-05
5.34085e-05
5.34265e-05
5.34053e-05
5.10546e-05
5.10553e-05
5.10538e-05
5.10544e-05
5.34299e-05
5.34035e-05
5.10546e-05
5.10546e-05
5.10538e-05
5.10538e-05
5.10578e-05
5.10559e-05
5.1057e-05
5.34298e-05
5.34036e-05
5.10579e-05
5.10568e-05
5.1057e-05
5.3406e-05
5.34204e-05
5.34158e-05
5.10546e-05
5.10553e-05
5.10536e-05
5.10543e-05
5.34193e-05
5.34157e-05
5.10546e-05
5.10547e-05
5.10537e-05
5.10537e-05
5.10579e-05
5.10559e-05
5.10571e-05
5.34194e-05
5.34155e-05
5.1058e-05
5.10567e-05
5.10571e-05
5.34181e-05
5.34322e-05
5.34087e-05
5.10547e-05
5.10554e-05
5.10535e-05
5.10542e-05
5.34307e-05
5.34113e-05
5.10548e-05
5.10548e-05
5.10534e-05
5.10535e-05
5.10582e-05
5.10558e-05
5.10569e-05
5.34299e-05
5.34122e-05
5.10582e-05
5.10565e-05
5.10569e-05
5.34127e-05
5.34304e-05
5.34016e-05
5.1055e-05
5.10557e-05
5.1053e-05
5.10538e-05
5.34319e-05
5.34029e-05
5.10551e-05
5.1055e-05
5.10531e-05
5.10531e-05
5.10584e-05
5.10554e-05
5.10567e-05
5.34324e-05
5.34036e-05
5.10584e-05
5.10561e-05
5.10567e-05
5.34064e-05
5.34204e-05
5.34082e-05
5.10554e-05
5.10562e-05
5.10526e-05
5.10532e-05
5.34241e-05
5.34046e-05
5.10555e-05
5.10555e-05
5.10528e-05
5.10526e-05
5.10591e-05
5.10547e-05
5.10557e-05
5.34253e-05
5.34037e-05
5.10591e-05
5.10554e-05
5.10557e-05
5.3405e-05
5.34228e-05
5.34155e-05
5.10558e-05
5.10565e-05
5.10527e-05
5.10532e-05
5.34206e-05
5.34124e-05
5.1056e-05
5.10559e-05
5.10528e-05
5.10525e-05
5.1059e-05
5.10548e-05
5.10561e-05
5.342e-05
5.3413e-05
5.10589e-05
5.10555e-05
5.1056e-05
5.34175e-05
5.34328e-05
5.34068e-05
5.10569e-05
5.10574e-05
5.10525e-05
5.10531e-05
5.34269e-05
5.34154e-05
5.10571e-05
5.10568e-05
5.10526e-05
5.10526e-05
5.10601e-05
5.10547e-05
5.10557e-05
5.34274e-05
5.3414e-05
5.10601e-05
5.10554e-05
5.10556e-05
5.34127e-05
5.34289e-05
5.3402e-05
5.10586e-05
5.1059e-05
5.10499e-05
5.10506e-05
5.34329e-05
5.34033e-05
5.10588e-05
5.10585e-05
5.10499e-05
5.105e-05
5.10618e-05
5.1052e-05
5.10531e-05
5.34326e-05
5.3405e-05
5.10617e-05
5.10527e-05
5.1053e-05
5.34045e-05
5.34175e-05
5.32147e-05
5.10407e-05
5.10416e-05
5.08793e-05
5.08802e-05
5.34224e-05
5.32156e-05
5.10407e-05
5.10407e-05
5.08809e-05
5.08783e-05
5.10439e-05
5.08836e-05
5.08821e-05
5.34237e-05
5.32141e-05
5.10438e-05
5.08825e-05
5.08834e-05
5.32165e-05
5.30441e-05
4.98473e-05
4.9848e-05
5.30442e-05
4.98492e-05
4.98463e-05
3.82714e-05
3.82703e-05
3.82728e-05
4.985e-05
5.30445e-05
4.98517e-05
2.31224e-06
3.48017e-07
1.45561e-06
1.45768e-06
9.85342e-08
3.19434e-07
2.34472e-07
8.08256e-07
9.97421e-08
3.79761e-07
7.84426e-07
7.50974e-07
3.5585e-07
2.69823e-07
4.09186e-07
2.86378e-07
5.1646e-06
2.49167e-07
6.89149e-06
1.35845e-05
2.10276e-05
2.99242e-07
5.1978e-06
2.59046e-07
6.91812e-06
7.89426e-07
7.88499e-07
7.72612e-07
7.69327e-07
7.78854e-07
7.79182e-07
7.61803e-07
9.89163e-08
6.38855e-07
3.91457e-07
3.21387e-07
9.92369e-08
6.22242e-07
3.87012e-07
1.38058e-05
2.14491e-05
1.00995e-07
4.31168e-07
1.06661e-06
4.63033e-07
9.96206e-08
4.24544e-07
1.0254e-06
1.89684e-06
1.92139e-06
3.40388e-07
1.87233e-06
1.90062e-06
4.91485e-07
1.00853e-05
3.94229e-07
1.30173e-05
3.5973e-05
4.6051e-05
5.00399e-07
1.00828e-05
3.91259e-07
1.29036e-05
7.80928e-07
7.80794e-07
7.63431e-07
7.77853e-07
7.8826e-07
7.8646e-07
7.69395e-07