/*--------------------------------*- C++ -*----------------------------------*\
| =========                 |                                                 |
| \\      /  F ield         | OpenFOAM: The Open Source CFD Toolbox           |
|  \\    /   O peration     | Version:  v2012                                 |
|   \\  /    A nd           | Website:  www.openfoam.com                      |
|    \\/     M anipulation  |                                                 |
\*---------------------------------------------------------------------------*/
FoamFile
{
    version     2.0;
    format      ascii;
    class       volScalarField;
    location    "262.5";
    object      nut;
}
// * * * * * * * * * * * * * * * * * * * * * * * * * * * * * * * * * * * * * //

dimensions      [0 2 -1 0 0 0 0];


internalField   nonuniform List<scalar> 
171728
(
9.83004e-06
1.78676e-06
3.30893e-06
2.1772e-06
9.65078e-06
1.73247e-06
3.72138e-06
2.16946e-06
9.85838e-06
1.64821e-06
4.15638e-06
2.16776e-06
1.00674e-05
1.57363e-06
4.30992e-06
2.16191e-06
1.02808e-05
1.50137e-06
3.58253e-06
2.15739e-06
1.05111e-05
1.45023e-06
2.70272e-06
2.14738e-06
1.07501e-05
1.36972e-06
2.13478e-06
2.1312e-06
1.09996e-05
1.31763e-06
1.78779e-06
2.11268e-06
1.12434e-05
1.27761e-06
1.61616e-06
2.09517e-06
1.14941e-05
1.25027e-06
1.51031e-06
2.07784e-06
1.17516e-05
1.42651e-06
1.4047e-06
2.03686e-06
1.20383e-05
2.07784e-06
1.33378e-06
1.96275e-06
1.23944e-05
3.81973e-06
1.33666e-06
1.87786e-06
1.27509e-05
7.30019e-06
1.52923e-06
1.7934e-06
1.31269e-05
1.05367e-05
1.90941e-06
1.69944e-06
1.34442e-05
1.13891e-05
2.64283e-06
1.59111e-06
1.37555e-05
8.06875e-06
3.46332e-06
1.47204e-06
1.39587e-05
3.55427e-06
3.70772e-06
1.37506e-06
1.39918e-05
2.07247e-06
3.33166e-06
1.37485e-06
1.39303e-05
1.90604e-06
2.64532e-06
1.4471e-06
1.38149e-05
1.56519e-06
2.07099e-06
1.96561e-06
1.39425e-05
2.07678e-06
2.38673e-06
2.75505e-06
1.4037e-05
2.82618e-06
3.11227e-06
4.13376e-06
1.40606e-05
2.68866e-06
3.30157e-06
6.01075e-06
1.40493e-05
5.04007e-06
4.12163e-06
8.54738e-06
1.40725e-05
4.25967e-06
6.60611e-06
1.3406e-05
1.39686e-05
9.23499e-06
6.32247e-06
1.77404e-05
1.37885e-05
7.6341e-06
1.09593e-05
2.74673e-05
1.37193e-05
1.39292e-05
1.12096e-05
3.36758e-05
1.37378e-05
1.4682e-05
1.46855e-05
4.88301e-05
1.33979e-05
1.87268e-05
2.0107e-05
4.32718e-05
1.36212e-05
2.21144e-05
2.0802e-05
5.32883e-05
1.33483e-05
2.87503e-05
2.82696e-05
5.96438e-05
1.43507e-05
2.82621e-05
3.15865e-05
6.6483e-05
1.43813e-05
4.14054e-05
3.88763e-05
7.12611e-05
1.41793e-05
3.9922e-05
3.90324e-05
7.1488e-05
1.67328e-05
4.92712e-05
4.99036e-05
8.32638e-05
1.6345e-05
5.44447e-05
5.41114e-05
8.35614e-05
1.8661e-05
5.97025e-05
5.85025e-05
8.92976e-05
2.00764e-05
6.48433e-05
6.72062e-05
9.15666e-05
2.2814e-05
7.34733e-05
7.07538e-05
9.7812e-05
2.63094e-05
7.80241e-05
8.04583e-05
0.000100071
2.74604e-05
8.40492e-05
8.34192e-05
0.000104743
3.39281e-05
9.16938e-05
9.1106e-05
0.000109382
3.58115e-05
9.59953e-05
9.71221e-05
0.000111492
4.21151e-05
0.00010241
0.0001019
0.000116562
4.60865e-05
0.000108592
0.000108128
0.000119683
5.16304e-05
0.000113634
0.000115233
0.000123941
5.99543e-05
0.000118756
0.000116407
0.000127404
6.11302e-05
0.000122993
0.00012416
0.000129729
7.20546e-05
0.000130581
0.000130553
0.000134613
7.71198e-05
0.000134424
0.0001332
0.000138216
8.76371e-05
0.000139187
0.000139811
0.000141973
8.96691e-05
0.00014247
0.000142563
0.000143106
0.000103573
0.000153274
0.000153173
0.000151568
0.000110181
0.000152306
0.000152516
0.0001494
0.000101883
0.000146123
0.000146432
0.000143838
0.000108753
0.000157233
0.000157356
0.00015303
0.000141614
0.000175518
0.000175463
0.000166488
0.000166305
0.000187147
0.000187025
0.000175619
0.000175678
0.000189135
0.000189014
0.000175008
0.000156569
0.000174739
0.00017478
0.000165428
0.000125314
0.000156617
0.000156705
0.000151126
0.000103301
0.000146738
0.000146807
0.000142408
0.000101981
0.000153671
0.000153687
0.000148372
0.000138014
0.000171717
0.000171721
0.000160764
0.000172963
0.000186868
0.000186865
0.000171365
0.000197493
0.000196317
0.000196313
0.000177827
0.000210291
0.000200876
0.000200871
0.000180939
0.000216096
0.000202899
0.000202891
0.000182295
0.000218537
0.000203691
0.000203683
0.000182818
0.000219134
0.000203823
0.000203816
0.000182973
0.000219166
0.000203777
0.00020377
0.000182883
0.000219316
0.000203879
0.00020387
0.000183004
0.000219299
0.000203839
0.000203831
0.000182993
0.000219281
0.000203831
0.000203824
0.000182913
0.000219302
0.00020386
0.000203851
0.000183032
0.000219285
0.000203832
0.000203824
0.000182924
0.000219295
0.000203852
0.000203845
0.000183005
0.000219287
0.000203833
0.000203824
0.000182935
0.000219293
0.000203852
0.000203844
0.000183002
0.000219288
0.000203837
0.000203829
0.000182926
0.000219288
0.000203845
0.000203836
0.000183014
0.000219287
0.000203842
0.000203833
0.000182911
0.000219287
0.000203842
0.000203834
0.00018301
0.000219287
0.000203843
0.000203835
0.000182972
0.000219287
0.000203842
0.000203835
0.000182923
0.000219287
0.000203843
0.000203835
0.000183004
0.000219287
0.000203844
0.000203836
0.000182991
0.000219287
0.000203846
0.000203838
0.000182956
0.000219288
0.000203844
0.000203836
0.000182918
0.00021929
0.000203848
0.000203839
0.000183002
0.000219292
0.000203855
0.000203846
0.000182998
0.000219253
0.000203768
0.000203758
0.000182964
0.000220911
0.000204743
0.000204737
0.00018603
2.29869e-06
2.51384e-06
2.17582e-06
2.34275e-06
2.08021e-06
2.42756e-06
1.02743e-05
9.70486e-06
1.04481e-05
1.02872e-05
1.93453e-06
2.43949e-06
2.29401e-06
3.0894e-06
2.47441e-06
2.19712e-06
2.29553e-06
2.29424e-06
2.28785e-06
1.87785e-06
2.33458e-06
1.86506e-06
2.35139e-06
2.30831e-06
2.06848e-06
2.09636e-06
2.07965e-06
2.10103e-06
2.32298e-06
1.75062e-06
2.31536e-06
2.28202e-06
2.28335e-06
2.51278e-06
3.59557e-06
2.44682e-06
2.19175e-06
2.27689e-06
2.29323e-06
2.35263e-06
1.86307e-06
2.40312e-06
1.84864e-06
2.31858e-06
2.24728e-06
2.08091e-06
2.10662e-06
2.06807e-06
2.12253e-06
2.31649e-06
1.66944e-06
2.32052e-06
2.28163e-06
2.3165e-06
2.43784e-06
4.0452e-06
2.37743e-06
2.18851e-06
2.27991e-06
2.29616e-06
2.41775e-06
1.84084e-06
2.46082e-06
1.81323e-06
2.24258e-06
2.15727e-06
2.06023e-06
2.12789e-06
2.0307e-06
2.13982e-06
2.32267e-06
1.59275e-06
2.32951e-06
2.31384e-06
2.36237e-06
2.34761e-06
4.36202e-06
2.28266e-06
2.18023e-06
2.28175e-06
2.29602e-06
2.47681e-06
1.80065e-06
2.52724e-06
1.76158e-06
2.14542e-06
2.05667e-06
2.01623e-06
2.14032e-06
1.95138e-06
2.14359e-06
2.32861e-06
1.51555e-06
2.32476e-06
2.35841e-06
2.3572e-06
2.27061e-06
3.80854e-06
2.25553e-06
2.17523e-06
2.27726e-06
2.28166e-06
2.54364e-06
1.74638e-06
2.60864e-06
1.72144e-06
2.04392e-06
1.96861e-06
1.92578e-06
2.14404e-06
1.85287e-06
2.16388e-06
2.32266e-06
1.46578e-06
2.31884e-06
2.33084e-06
2.26844e-06
2.25313e-06
2.8966e-06
2.24977e-06
2.16642e-06
2.26373e-06
2.26255e-06
2.63096e-06
1.718e-06
2.67363e-06
1.72327e-06
1.95795e-06
1.89348e-06
1.83177e-06
2.16875e-06
1.7665e-06
2.20352e-06
2.31771e-06
1.39009e-06
2.31441e-06
2.23379e-06
2.20177e-06
2.24693e-06
2.25206e-06
2.23996e-06
2.15121e-06
2.24414e-06
2.23738e-06
2.68198e-06
1.73801e-06
2.71098e-06
1.80254e-06
1.88226e-06
1.82527e-06
1.74314e-06
2.21802e-06
1.68563e-06
2.26794e-06
2.31403e-06
1.32901e-06
2.29848e-06
2.18108e-06
2.16167e-06
2.2353e-06
1.85621e-06
2.21957e-06
2.13164e-06
2.2189e-06
2.189e-06
2.71823e-06
1.83231e-06
2.71851e-06
1.90694e-06
1.80995e-06
1.74554e-06
1.66901e-06
2.28408e-06
1.61209e-06
2.34565e-06
2.29202e-06
1.2866e-06
2.26888e-06
2.1404e-06
2.11621e-06
2.21511e-06
1.64598e-06
2.19683e-06
2.11253e-06
2.17019e-06
2.06667e-06
2.70813e-06
1.92668e-06
2.62088e-06
1.95647e-06
1.72567e-06
1.63628e-06
1.58911e-06
2.37764e-06
1.54008e-06
2.52534e-06
2.26442e-06
1.24936e-06
2.24779e-06
2.0955e-06
2.07072e-06
2.19133e-06
1.53873e-06
2.16578e-06
2.09007e-06
2.04981e-06
1.91917e-06
2.57508e-06
1.92819e-06
2.42191e-06
1.71005e-06
1.61138e-06
1.52846e-06
1.53146e-06
2.59159e-06
1.5036e-06
2.8608e-06
2.2437e-06
1.35537e-06
2.22372e-06
2.06654e-06
2.071e-06
2.15656e-06
1.42754e-06
2.1297e-06
2.04815e-06
1.90454e-06
1.82291e-06
2.37508e-06
1.60665e-06
2.24771e-06
1.31915e-06
1.52269e-06
1.5958e-06
1.49366e-06
2.98372e-06
1.50684e-06
3.44499e-06
2.21176e-06
1.83138e-06
2.17483e-06
2.06802e-06
2.09426e-06
2.11882e-06
1.35006e-06
2.08194e-06
1.97834e-06
1.81074e-06
1.79112e-06
2.21635e-06
1.24737e-06
2.13271e-06
1.11269e-06
1.60367e-06
1.86834e-06
1.52731e-06
3.61925e-06
1.6461e-06
4.16089e-06
2.15968e-06
3.23802e-06
2.11472e-06
2.09435e-06
2.1602e-06
2.06675e-06
1.3124e-06
2.02819e-06
1.89674e-06
1.78362e-06
1.81224e-06
2.11381e-06
1.09211e-06
2.05194e-06
1.05936e-06
1.89022e-06
2.56739e-06
1.7059e-06
4.32724e-06
1.94991e-06
4.73304e-06
2.09735e-06
6.31595e-06
2.03865e-06
2.16455e-06
2.25314e-06
2.01422e-06
1.46649e-06
1.97161e-06
1.81561e-06
1.81109e-06
1.88634e-06
2.03198e-06
1.1147e-06
1.98402e-06
1.48206e-06
2.61986e-06
3.66498e-06
2.05842e-06
4.82105e-06
2.46865e-06
4.90957e-06
2.01931e-06
9.93403e-06
1.96356e-06
2.25584e-06
2.34491e-06
1.95502e-06
1.78521e-06
1.90394e-06
1.72465e-06
1.88682e-06
2.00374e-06
1.96874e-06
1.64925e-06
1.91606e-06
2.37399e-06
3.75638e-06
4.31077e-06
2.62744e-06
4.88248e-06
3.17819e-06
4.55758e-06
1.94547e-06
1.14068e-05
1.88983e-06
2.33854e-06
2.31558e-06
1.88773e-06
2.42444e-06
1.83206e-06
1.62197e-06
1.99971e-06
2.11724e-06
1.89403e-06
2.70738e-06
1.8283e-06
3.9919e-06
4.29588e-06
3.93852e-06
3.37505e-06
4.2321e-06
3.95344e-06
3.31167e-06
1.87279e-06
9.66179e-06
1.80647e-06
2.27287e-06
2.1697e-06
1.81271e-06
3.28657e-06
1.7403e-06
1.50055e-06
2.10832e-06
2.15753e-06
1.80402e-06
4.49355e-06
1.77722e-06
5.46497e-06
3.83247e-06
3.31836e-06
4.10879e-06
3.07447e-06
4.49184e-06
2.38566e-06
1.79568e-06
4.3181e-06
1.73538e-06
2.11517e-06
1.97747e-06
1.72682e-06
3.71056e-06
1.66158e-06
1.40823e-06
2.14906e-06
2.06352e-06
1.73447e-06
5.63404e-06
1.76622e-06
5.8643e-06
3.11493e-06
2.91669e-06
4.50371e-06
2.19116e-06
4.50428e-06
1.9494e-06
1.72892e-06
2.27844e-06
1.69327e-06
1.8818e-06
1.82458e-06
1.65307e-06
3.48545e-06
1.62004e-06
1.38877e-06
2.14025e-06
1.78892e-06
1.79738e-06
5.66736e-06
1.62027e-06
4.77564e-06
2.8187e-06
2.29729e-06
4.45305e-06
1.87147e-06
3.72017e-06
1.65073e-06
1.71608e-06
1.87409e-06
1.70634e-06
1.74731e-06
1.54573e-06
1.63673e-06
2.75827e-06
1.62944e-06
1.46997e-06
1.72886e-06
2.30279e-06
1.6922e-06
4.55595e-06
1.95217e-06
3.35384e-06
2.38187e-06
1.71769e-06
3.49601e-06
1.76105e-06
3.05255e-06
1.83844e-06
1.72438e-06
1.70026e-06
1.85616e-06
1.75907e-06
1.83291e-06
1.64727e-06
2.22927e-06
1.804e-06
1.91966e-06
2.16451e-06
2.37676e-06
1.85359e-06
3.05273e-06
2.08545e-06
3.08772e-06
1.52671e-06
3.17791e-06
2.69179e-06
1.79043e-06
2.26732e-06
2.02502e-06
1.87422e-06
2.02671e-06
2.14941e-06
1.72613e-06
2.33801e-06
1.83483e-06
2.26974e-06
2.04263e-06
2.56956e-06
3.36383e-06
3.53041e-06
2.44069e-06
3.22832e-06
2.41888e-06
3.99179e-06
3.68616e-06
4.07241e-06
2.60114e-06
2.09605e-06
2.66568e-06
2.63138e-06
2.1606e-06
2.62593e-06
2.59389e-06
2.76112e-06
3.77202e-06
2.08828e-06
2.92771e-06
2.51671e-06
3.45705e-06
3.22773e-06
7.02056e-06
2.38842e-06
3.9992e-06
3.43803e-06
3.28721e-06
4.56125e-06
3.6441e-06
2.62729e-06
2.82681e-06
3.70355e-06
2.8324e-06
2.78421e-06
2.52487e-06
3.12687e-06
3.86351e-06
4.77428e-06
2.70104e-06
3.0241e-06
3.22386e-06
5.50484e-06
7.23949e-06
5.94705e-06
3.43407e-06
3.55879e-06
3.93753e-06
5.56245e-06
3.40739e-06
1.42859e-05
3.67366e-06
3.37442e-06
3.74589e-06
4.05294e-06
3.49537e-06
5.11318e-06
4.10003e-06
4.8074e-06
9.63107e-06
3.46528e-06
4.20863e-06
3.92819e-06
7.77981e-06
7.54788e-06
1.3963e-05
4.44547e-06
5.40319e-06
5.88104e-06
4.28531e-06
1.43226e-05
5.90876e-06
4.44417e-06
4.00593e-06
5.67282e-06
5.98622e-06
4.07329e-06
3.95288e-06
5.98175e-06
9.69618e-06
1.30678e-05
4.24522e-06
6.05644e-06
5.86398e-06
1.251e-05
1.37827e-05
1.58216e-05
6.07393e-06
4.58326e-06
6.44929e-06
9.15073e-06
6.36692e-06
2.66633e-05
5.94569e-06
6.52177e-06
6.4802e-06
6.27221e-06
6.14968e-06
8.82917e-06
6.27892e-06
1.56976e-05
1.54041e-05
5.85441e-06
6.15888e-06
6.59065e-06
1.38584e-05
1.62536e-05
2.6626e-05
7.41861e-06
9.86528e-06
9.44651e-06
8.91673e-06
2.74416e-05
1.83596e-05
7.35191e-06
6.27063e-06
9.58104e-06
1.08603e-05
8.27852e-06
7.95018e-06
1.02751e-05
1.43178e-05
2.98982e-05
8.41886e-06
1.07557e-05
1.0063e-05
2.88269e-05
2.791e-05
2.68458e-05
9.41753e-06
8.45797e-06
1.15832e-05
1.33659e-05
1.68479e-05
3.80885e-05
9.48405e-06
1.14146e-05
1.11933e-05
1.03009e-05
9.66633e-06
1.33893e-05
9.7757e-06
3.14046e-05
2.59474e-05
9.49811e-06
9.9856e-06
1.0613e-05
2.47243e-05
2.88784e-05
4.01765e-05
1.23978e-05
1.3974e-05
1.41496e-05
1.30428e-05
4.00828e-05
3.31516e-05
1.23077e-05
1.06756e-05
1.45818e-05
1.52989e-05
1.354e-05
1.31149e-05
1.74141e-05
2.46992e-05
4.17746e-05
1.39603e-05
1.48239e-05
1.67087e-05
4.9255e-05
4.10394e-05
4.46679e-05
1.54814e-05
1.39982e-05
1.88019e-05
1.87011e-05
3.20583e-05
4.96753e-05
1.57361e-05
1.51259e-05
1.79743e-05
1.82337e-05
1.72062e-05
1.77906e-05
1.73401e-05
4.26775e-05
4.34843e-05
1.68542e-05
1.88615e-05
1.71141e-05
4.22487e-05
4.59964e-05
5.04668e-05
1.86489e-05
1.95862e-05
2.0504e-05
2.0563e-05
5.04265e-05
4.9728e-05
1.77979e-05
1.97127e-05
2.0942e-05
1.99855e-05
1.68558e-05
2.14888e-05
2.10473e-05
4.65657e-05
5.11088e-05
1.66763e-05
1.99358e-05
2.17343e-05
4.91031e-05
5.19712e-05
5.85416e-05
2.31191e-05
2.15019e-05
2.64593e-05
2.78216e-05
5.2344e-05
5.95438e-05
2.33977e-05
2.11911e-05
2.66392e-05
2.79559e-05
2.46953e-05
2.72596e-05
2.79791e-05
5.14108e-05
5.82321e-05
2.50052e-05
2.7676e-05
2.74749e-05
6.04011e-05
5.96632e-05
6.49184e-05
2.60553e-05
2.91723e-05
3.12815e-05
2.82446e-05
5.97124e-05
6.20666e-05
2.61845e-05
2.85629e-05
3.07673e-05
2.82301e-05
2.72016e-05
2.81894e-05
2.76752e-05
5.97413e-05
6.45406e-05
2.66593e-05
2.86594e-05
2.82289e-05
6.25741e-05
6.68229e-05
6.9686e-05
3.46275e-05
2.82371e-05
3.74512e-05
3.9041e-05
6.34645e-05
7.25361e-05
3.42514e-05
3.09294e-05
3.74859e-05
3.89464e-05
3.23639e-05
3.89226e-05
3.91475e-05
6.5996e-05
7.08724e-05
3.29818e-05
3.88665e-05
3.92013e-05
7.18585e-05
6.94258e-05
7.19303e-05
3.66125e-05
4.16463e-05
3.75905e-05
4.14207e-05
7.41474e-05
7.26553e-05
3.66926e-05
3.90689e-05
3.74379e-05
3.71295e-05
3.86487e-05
4.10167e-05
3.57866e-05
7.12871e-05
7.10805e-05
3.86354e-05
3.69315e-05
3.55011e-05
6.92949e-05
7.48085e-05
8.18949e-05
4.17987e-05
4.02345e-05
4.92363e-05
4.44309e-05
7.22363e-05
7.88792e-05
4.15439e-05
3.91013e-05
4.95195e-05
4.86766e-05
3.74889e-05
4.51718e-05
4.91789e-05
7.25489e-05
8.19074e-05
3.68029e-05
4.84699e-05
5.00777e-05
8.25502e-05
8.22283e-05
8.26919e-05
5.02382e-05
4.95545e-05
5.16714e-05
5.39357e-05
8.18809e-05
8.51811e-05
5.02299e-05
4.98643e-05
5.11282e-05
5.30377e-05
5.09517e-05
5.36339e-05
5.22005e-05
8.27385e-05
8.3543e-05
5.16862e-05
5.36814e-05
5.17468e-05
8.31033e-05
8.33948e-05
8.77363e-05
5.25894e-05
5.42231e-05
5.83465e-05
5.81176e-05
8.53392e-05
8.72543e-05
5.25096e-05
5.39656e-05
5.86772e-05
5.62586e-05
5.22165e-05
5.86436e-05
5.87928e-05
8.40677e-05
8.66273e-05
5.19444e-05
5.59439e-05
5.89285e-05
8.78612e-05
8.87872e-05
9.13819e-05
6.00284e-05
5.952e-05
6.39616e-05
6.38444e-05
8.82697e-05
9.103e-05
5.99801e-05
5.83333e-05
6.35386e-05
6.68745e-05
6.17143e-05
6.29992e-05
6.29366e-05
8.79363e-05
9.28081e-05
6.17081e-05
6.65731e-05
6.29398e-05
9.11246e-05
9.23099e-05
9.62187e-05
6.58883e-05
6.55035e-05
7.08836e-05
7.03781e-05
9.20031e-05
9.64099e-05
6.56797e-05
6.7809e-05
7.13227e-05
6.81928e-05
6.34244e-05
7.14935e-05
7.19147e-05
9.33719e-05
9.44788e-05
6.3474e-05
6.85244e-05
7.1668e-05
9.647e-05
9.69647e-05
9.97545e-05
7.18876e-05
7.22806e-05
7.77418e-05
7.79474e-05
9.73334e-05
9.97771e-05
7.21913e-05
7.04016e-05
7.70143e-05
7.89064e-05
7.39641e-05
7.73846e-05
7.64751e-05
9.55157e-05
0.000101272
7.39272e-05
7.90312e-05
7.66788e-05
9.96098e-05
0.000100762
0.000103308
7.98809e-05
7.8862e-05
8.16905e-05
8.16745e-05
0.000100415
0.000103133
7.9235e-05
8.00174e-05
8.20948e-05
8.23699e-05
7.8072e-05
8.16784e-05
8.26239e-05
0.000101947
0.000102958
7.78069e-05
8.20744e-05
8.23152e-05
0.000103733
0.000103839
0.000108243
8.26015e-05
8.38726e-05
9.04567e-05
9.03385e-05
0.000104193
0.000108523
8.298e-05
8.41936e-05
9.01717e-05
8.90607e-05
8.37341e-05
9.05406e-05
9.03052e-05
0.000103555
0.000107978
8.42338e-05
8.95558e-05
9.05856e-05
0.000108479
0.000109394
0.000110998
9.25243e-05
9.1405e-05
9.40545e-05
9.47458e-05
0.000109112
0.000110895
9.22953e-05
9.0222e-05
9.43252e-05
9.60169e-05
9.26439e-05
9.47091e-05
9.49411e-05
0.00010885
0.000111712
9.18234e-05
9.52444e-05
9.44254e-05
0.000111112
0.000111361
0.000116041
9.5109e-05
9.63191e-05
0.000102124
0.000100863
0.000111677
0.000115486
9.52698e-05
9.80816e-05
0.000101561
0.000100473
9.52573e-05
0.000100623
0.000100566
0.000112595
0.000115169
9.60044e-05
0.000101411
0.000101153
0.00011549
0.000117075
0.000118454
0.000103942
0.000102378
0.000105957
0.000107314
0.000116257
0.000119507
0.000103355
0.000100869
0.000105873
0.000106402
0.00010302
0.000107539
0.000107249
0.000115511
0.000118911
0.000102349
0.000105674
0.00010662
0.000119212
0.000118745
0.000123288
0.00010668
0.000108482
0.000112351
0.000111736
0.000120205
0.000122545
0.000106654
0.000108972
0.00011225
0.000114074
0.000107652
0.000111919
0.000111702
0.000120256
0.000124159
0.000108348
0.000114464
0.000113394
0.000122988
0.000124535
0.000127231
0.000114667
0.000113321
0.000118739
0.000117996
0.000123257
0.000126701
0.000114687
0.000114762
0.000119098
0.000115996
0.000114244
0.00011805
0.000119524
0.000124409
0.000124626
0.000114872
0.00011571
0.00011778
0.000127083
0.000127356
0.00012825
0.000119161
0.000118984
0.000120817
0.000121521
0.000127202
0.00012915
0.000119314
0.000116675
0.000119955
0.000121025
0.000119876
0.000121011
0.000121094
0.000125042
0.000129825
0.000118292
0.000121467
0.000120755
0.000128902
0.00012911
0.000134572
0.000122532
0.000123266
0.000128727
0.000129113
0.000130017
0.000134878
0.000121681
0.000123721
0.000129106
0.000130891
0.00012286
0.000129681
0.000128586
0.00013118
0.00013557
0.000122699
0.000130352
0.000128652
0.000134108
0.000135301
0.000136999
0.00012973
0.000129932
0.000132276
0.000132183
0.00013544
0.00013695
0.000130436
0.00013138
0.000132615
0.000131766
0.000129242
0.000132619
0.000132058
0.000135748
0.000136052
0.000129515
0.000131249
0.000132992
0.000137078
0.00013773
0.000141502
0.000134208
0.000134063
0.000139524
0.000139068
0.000137733
0.000141242
0.000134238
0.000133411
0.000139167
0.000138913
0.000134411
0.000139082
0.000139821
0.00013682
0.000141471
0.000135357
0.000139313
0.000140245
0.00014195
0.000141697
0.000142453
0.000139832
0.000139304
0.000140572
0.000140187
0.000141363
0.000142141
0.000139507
0.000139366
0.00014049
0.000140492
0.000139952
0.000139974
0.000139885
0.000141727
0.000142404
0.000140281
0.000140432
0.000139907
0.000141952
0.000143575
0.000150909
0.000142765
0.000142484
0.000151666
0.00015167
0.000143382
0.000151047
0.000142668
0.000142746
0.000151568
0.000151763
0.000142237
0.000151793
0.000151609
0.00014351
0.000150986
0.000142133
0.000151598
0.000151515
0.000150921
0.000151539
0.000150012
0.000153164
0.000153225
0.000153873
0.000154015
0.00015168
0.000150103
0.000153064
0.000153242
0.000153746
0.000153957
0.000153149
0.000153948
0.000153856
0.000151635
0.000150108
0.000153045
0.00015401
0.000153721
0.000150024
0.000149384
0.000144201
0.000152311
0.000152502
0.000147272
0.00014746
0.000149471
0.000144259
0.000152199
0.000152347
0.000147231
0.000147293
0.000152297
0.00014723
0.000147302
0.00014947
0.000144216
0.000152165
0.000147536
0.000147239
0.000144276
0.000143758
0.000150996
0.000146167
0.000146346
0.00015268
0.000152593
0.000143797
0.000150909
0.000146139
0.000146179
0.000152792
0.000152719
0.000146206
0.00015266
0.000152727
0.000143765
0.00015098
0.000146161
0.000152869
0.00015287
0.000151003
0.000153048
0.000164304
0.000157237
0.000157125
0.000171083
0.000170969
0.000152962
0.000164235
0.000157337
0.000157296
0.000171158
0.000171141
0.000157259
0.000171086
0.00017106
0.000153035
0.00016427
0.000157349
0.000171056
0.000171067
0.000164238
0.000166551
0.000175007
0.000175515
0.000175422
0.000185288
0.000185273
0.000166492
0.000175008
0.000175582
0.000175556
0.000185337
0.000185277
0.000175491
0.00018532
0.000185287
0.000166512
0.000174942
0.00017549
0.000185222
0.000185291
0.000174999
0.000175617
0.000175727
0.000187104
0.000187107
0.000190258
0.000190327
0.00017563
0.000175824
0.000187152
0.00018708
0.000190304
0.000190211
0.000187115
0.00019035
0.000190309
0.000175551
0.000175682
0.000187118
0.000190196
0.000190319
0.000175793
0.000174937
0.000166697
0.000189
0.000189153
0.000178697
0.000178788
0.000175039
0.000166744
0.000189028
0.000188927
0.000178695
0.000178629
0.000189089
0.000178749
0.000178735
0.000174898
0.000166697
0.000189122
0.000178757
0.000178782
0.000166736
0.000165396
0.000152621
0.000174705
0.000174774
0.000160984
0.000161005
0.000165435
0.000152624
0.000174702
0.000174651
0.000160982
0.000160978
0.000174727
0.000160983
0.000160973
0.000165401
0.000152658
0.000174774
0.00016107
0.000161012
0.000152619
0.000151128
0.000143063
0.00015662
0.00015663
0.000148004
0.000147996
0.00015113
0.000143059
0.000156618
0.000156627
0.000148001
0.000148034
0.000156604
0.000147994
0.000147987
0.000151166
0.000143102
0.00015664
0.000148065
0.000148013
0.000143055
0.000142416
0.000146368
0.000146749
0.000146738
0.000148778
0.000148761
0.000142411
0.000146363
0.000146745
0.00014678
0.000148774
0.00014881
0.000146731
0.000148774
0.000148781
0.000142456
0.000146387
0.000146756
0.000148791
0.000148782
0.000146371
0.00014837
0.000158783
0.000153673
0.000153662
0.000167325
0.000167324
0.000148368
0.000158785
0.000153671
0.000153697
0.000167328
0.000167331
0.000153676
0.000167334
0.000167329
0.000148387
0.000158789
0.00015368
0.000167341
0.000167335
0.000158785
0.000160763
0.000169947
0.000171707
0.000171708
0.000183543
0.000183543
0.000160766
0.000169953
0.000171713
0.00017171
0.000183552
0.000183536
0.000171712
0.00018356
0.000183547
0.000160767
0.000169945
0.000171718
0.000183557
0.000183555
0.000169948
0.000171366
0.000177117
0.000186851
0.000186851
0.000194479
0.000194479
0.000171371
0.000177123
0.000186862
0.000186842
0.000194493
0.000194468
0.000186855
0.000194502
0.000194485
0.000171362
0.000177113
0.000186865
0.000194498
0.000194498
0.000177119
0.000177826
0.000180664
0.000196294
0.000196293
0.000200029
0.000200026
0.000177831
0.00018067
0.000196308
0.000196283
0.000200044
0.000200017
0.0001963
0.000200056
0.000200037
0.000177821
0.00018066
0.000196314
0.000200051
0.000200053
0.000180667
0.000180935
0.000182231
0.000200848
0.000200845
0.000202507
0.000202504
0.000180941
0.000182238
0.000200864
0.000200836
0.000202523
0.000202495
0.000200856
0.000202537
0.000202515
0.000180932
0.000182228
0.000200873
0.000202531
0.000202532
0.000182234
0.000182291
0.000182879
0.000202867
0.000202865
0.000203542
0.00020354
0.000182298
0.000182888
0.000202884
0.000202855
0.000203558
0.000203529
0.000202876
0.000203574
0.00020355
0.000182288
0.000182876
0.000202893
0.000203566
0.000203568
0.000182883
0.000182814
0.000183082
0.000203659
0.000203657
0.000203789
0.000203787
0.000182822
0.000183091
0.000203676
0.000203646
0.000203806
0.000203776
0.000203667
0.00020382
0.000203797
0.00018281
0.000183078
0.000203685
0.000203813
0.000203816
0.000183086
0.000182969
0.000183025
0.000203792
0.00020379
0.000203752
0.000203749
0.000182977
0.000183031
0.000203809
0.000203779
0.000203769
0.000203739
0.000203801
0.000203783
0.000203761
0.000182965
0.000183021
0.000203819
0.000203776
0.000203779
0.00018303
0.000182878
0.000183103
0.000203745
0.000203742
0.000203827
0.000203826
0.000182883
0.000183114
0.000203762
0.000203732
0.000203845
0.000203815
0.000203754
0.000203861
0.000203835
0.000182874
0.0001831
0.000203772
0.000203852
0.000203853
0.000183106
0.000183001
0.000183131
0.000203846
0.000203845
0.000203835
0.000203832
0.000183011
0.000183138
0.000203864
0.000203833
0.000203852
0.000203821
0.000203854
0.000203866
0.000203842
0.000182998
0.000183126
0.000203872
0.000203858
0.00020386
0.000183133
0.000182991
0.000183019
0.000203807
0.000203804
0.000203786
0.000203784
0.000182997
0.000183028
0.000203824
0.000203793
0.000203803
0.000203773
0.000203815
0.000203818
0.000203794
0.000182985
0.000183016
0.000203833
0.000203811
0.000203813
0.000183024
0.000182907
0.000183144
0.000203798
0.000203797
0.00020383
0.000203828
0.000182916
0.000183155
0.000203815
0.000203786
0.000203847
0.000203817
0.000203808
0.000203863
0.000203839
0.000182905
0.000183142
0.000203826
0.000203854
0.000203856
0.00018315
0.000183028
0.00018306
0.000203828
0.000203825
0.000203801
0.000203798
0.000183037
0.000183065
0.000203845
0.000203815
0.000203818
0.000203788
0.000203836
0.000203833
0.000203808
0.000183025
0.000183053
0.000203853
0.000203825
0.000203826
0.000183059
0.000182924
0.0001831
0.0002038
0.000203798
0.000203815
0.000203814
0.000182929
0.000183112
0.000203817
0.000203787
0.000203832
0.000203803
0.000203808
0.000203848
0.000203824
0.000182917
0.000183101
0.000203826
0.000203841
0.000203843
0.000183108
0.000182997
0.000183077
0.00020382
0.000203818
0.000203805
0.000203803
0.000183009
0.000183081
0.000203838
0.000203808
0.000203822
0.000203791
0.000203828
0.000203837
0.000203813
0.000182998
0.000183069
0.000203847
0.000203829
0.00020383
0.000183077
0.000182935
0.000183098
0.0002038
0.000203798
0.000203815
0.000203814
0.000182939
0.000183114
0.000203817
0.000203787
0.000203833
0.000203804
0.000203809
0.000203849
0.000203824
0.000182927
0.0001831
0.000203826
0.000203841
0.000203843
0.000183106
0.000182995
0.000183068
0.000203819
0.000203817
0.000203804
0.000203802
0.000183009
0.000183068
0.000203837
0.000203807
0.00020382
0.00020379
0.000203828
0.000203836
0.000203812
0.000182996
0.000183059
0.000203846
0.000203829
0.000203831
0.000183069
0.000182925
0.000183114
0.000203803
0.000203802
0.000203812
0.000203812
0.000182925
0.000183134
0.00020382
0.00020379
0.00020383
0.000203801
0.000203812
0.000203846
0.000203821
0.000182917
0.000183118
0.000203831
0.000203836
0.000203837
0.000183122
0.000183008
0.000183042
0.000203812
0.000203811
0.000203807
0.000203806
0.000183024
0.000183043
0.00020383
0.000203801
0.000203824
0.000203794
0.000203821
0.00020384
0.000203816
0.000183009
0.000183033
0.000203837
0.000203832
0.000203834
0.000183044
0.000182907
0.00018314
0.000203808
0.000203808
0.000203809
0.000203807
0.000182915
0.000183146
0.000203825
0.000203796
0.000203826
0.000203796
0.000203817
0.000203841
0.000203817
0.000182903
0.000183135
0.000203835
0.000203833
0.000203835
0.000183143
0.000183013
0.000183048
0.000203809
0.000203807
0.000203808
0.000203807
0.000183008
0.000183078
0.000203827
0.000203797
0.000203824
0.000203795
0.000203818
0.000203841
0.000203816
0.000182999
0.000183064
0.000203835
0.000203833
0.000203834
0.000183065
0.000182954
0.00018307
0.00020381
0.000203809
0.000203807
0.000203806
0.000182983
0.000183063
0.000203826
0.000203797
0.000203825
0.000203795
0.000203818
0.00020384
0.000203816
0.00018297
0.00018305
0.000203836
0.000203832
0.000203833
0.000183063
0.000182928
0.000183131
0.000203809
0.000203808
0.000203807
0.000203806
0.000182924
0.00018314
0.000203826
0.000203797
0.000203825
0.000203795
0.000203818
0.000203841
0.000203818
0.000182913
0.000183127
0.000203836
0.000203833
0.000203835
0.000183137
0.000183005
0.000183076
0.000203809
0.000203808
0.000203807
0.000203807
0.000183003
0.0001831
0.000203827
0.000203797
0.000203824
0.000203795
0.00020382
0.000203841
0.000203817
0.000182987
0.000183095
0.000203837
0.000203833
0.000203835
0.000183091
0.00018298
0.000183038
0.000203811
0.00020381
0.000203805
0.000203805
0.000182999
0.000183049
0.000203827
0.000203798
0.000203823
0.000203793
0.00020382
0.00020384
0.000203817
0.000182992
0.000183039
0.000203838
0.000203831
0.000203834
0.000183051
0.000182916
0.000183091
0.000203811
0.000203811
0.000203805
0.000203803
0.000182944
0.000183072
0.000203828
0.0002038
0.000203822
0.000203792
0.000203824
0.000203837
0.000203813
0.000182941
0.000183051
0.000203841
0.000203828
0.00020383
0.000183057
0.000182945
0.000183131
0.000203811
0.000203811
0.000203807
0.000203805
0.000182932
0.000183122
0.000203829
0.000203799
0.000203825
0.000203794
0.00020382
0.00020384
0.000203817
0.000182914
0.000183115
0.000203837
0.000203832
0.000203834
0.000183138
0.00018301
0.000183063
0.000203816
0.000203814
0.000203808
0.000203807
0.000182977
0.000183139
0.000203833
0.000203802
0.000203825
0.000203796
0.000203825
0.000203842
0.000203817
0.000182971
0.000183113
0.000203842
0.000203832
0.000203834
0.000183098
0.000182971
0.00018307
0.000203822
0.00020382
0.000203858
0.000203857
0.000183019
0.000183077
0.00020384
0.000203809
0.000203876
0.000203848
0.000203831
0.00020389
0.000203868
0.000183
0.000183077
0.000203848
0.000203884
0.000203885
0.00018307
0.000182944
0.000184301
0.000203732
0.000203733
0.000206278
0.000206281
0.000182976
0.000184311
0.000203751
0.00020372
0.000206297
0.000206272
0.000203742
0.000206307
0.000206289
0.000182978
0.000184294
0.00020376
0.000206299
0.000206306
0.000184306
0.00018602
0.000204718
0.000204719
0.000186023
0.000204734
0.000204713
0.000220917
0.000220916
0.000220926
0.000204729
0.000186019
0.000204744
3.23439e-05
3.34147e-06
2.02677e-05
2.03605e-05
4.11325e-07
1.86637e-06
7.08066e-07
1.06092e-05
5.47696e-07
3.11543e-06
1.05049e-05
2.65929e-06
2.20492e-06
1.7679e-06
1.78114e-06
9.92867e-07
1.37711e-05
9.32676e-07
1.55596e-05
1.07774e-05
1.29944e-05
1.06985e-06
1.38147e-05
9.96325e-07
1.55887e-05
9.27978e-06
1.00051e-05
9.86149e-06
9.60872e-06
9.05076e-06
9.77788e-06
9.65e-06
4.99554e-07
4.39089e-07
3.82561e-06
1.77699e-06
4.70787e-07
5.63863e-07
3.77509e-06
1.08586e-05
1.31251e-05
5.67405e-07
4.7123e-06
9.46604e-07
3.38074e-06
5.4391e-07
4.68542e-06
1.12049e-06
1.50011e-06
1.51203e-06
2.19033e-06
1.70683e-06
1.72148e-06
1.32029e-06
1.88115e-05
1.1854e-06
2.13754e-05
1.69796e-05
1.92167e-05
1.32887e-06
1.87962e-05
1.14426e-06
2.12769e-05
9.08852e-06
9.8235e-06
9.69314e-06
9.80955e-06