/*--------------------------------*- C++ -*----------------------------------*\
| =========                 |                                                 |
| \\      /  F ield         | OpenFOAM: The Open Source CFD Toolbox           |
|  \\    /   O peration     | Version:  v2012                                 |
|   \\  /    A nd           | Website:  www.openfoam.com                      |
|    \\/     M anipulation  |                                                 |
\*---------------------------------------------------------------------------*/
FoamFile
{
    version     2.0;
    format      ascii;
    class       volScalarField;
    location    "262.5";
    object      p;
}
// * * * * * * * * * * * * * * * * * * * * * * * * * * * * * * * * * * * * * //

dimensions      [0 2 -2 0 0 0 0];


internalField   nonuniform List<scalar> 
171728
(
0.0035335
0.00353235
0.00353248
0.00353316
0.00349785
0.00349632
0.00349643
0.00349925
0.00345985
0.00345793
0.00345795
0.00346016
0.00341561
0.00341401
0.003414
0.00341619
0.0033672
0.00336573
0.00336572
0.00336808
0.0033185
0.0033171
0.00331709
0.00331947
0.00327053
0.00326929
0.00326926
0.00327163
0.00322319
0.00322208
0.00322204
0.00322444
0.00317682
0.0031758
0.00317578
0.00317819
0.00313153
0.00313064
0.0031306
0.00313303
0.0030871
0.00308633
0.00308632
0.00308868
0.00304342
0.0030427
0.00304271
0.0030451
0.00300031
0.00299966
0.00299975
0.00300208
0.00295756
0.00295699
0.00295714
0.00295941
0.00291515
0.00291469
0.00291487
0.00291715
0.00287306
0.00287259
0.00287279
0.00287518
0.00283137
0.00283118
0.00283105
0.00283351
0.00279001
0.00278977
0.00278979
0.00279206
0.00274901
0.0027489
0.00274876
0.00275105
0.00270838
0.00270823
0.00270827
0.00271024
0.00266789
0.00266776
0.00266756
0.0026697
0.00262803
0.00262789
0.00262799
0.00262964
0.00258811
0.00258811
0.00258804
0.00258991
0.00254859
0.00254879
0.00254859
0.00255039
0.00250941
0.00250917
0.00250923
0.00251128
0.00247033
0.00247064
0.0024704
0.00247215
0.00243157
0.00243155
0.00243174
0.00243449
0.00239298
0.00239325
0.00239297
0.00239422
0.00235466
0.00235471
0.00235501
0.00235832
0.00231639
0.00231667
0.00231652
0.00231809
0.00227838
0.00227861
0.00227861
0.00228062
0.00224061
0.00224088
0.00224089
0.0022431
0.00220284
0.00220309
0.00220312
0.00220497
0.00216545
0.00216592
0.00216576
0.00216773
0.00212784
0.00212807
0.00212812
0.00213007
0.00209094
0.00209124
0.00209125
0.00209321
0.00205363
0.00205399
0.00205388
0.00205586
0.0020167
0.00201687
0.00201691
0.00201895
0.00197994
0.00198014
0.0019802
0.00198206
0.00194337
0.00194352
0.00194341
0.00194551
0.00190684
0.00190691
0.00190703
0.00190893
0.0018705
0.00187056
0.00187046
0.00187257
0.00183434
0.00183432
0.00183437
0.00183635
0.00179828
0.00179821
0.00179823
0.00180024
0.00176238
0.00176229
0.00176224
0.00176435
0.00172661
0.00172649
0.00172652
0.00172852
0.00169102
0.00169084
0.00169089
0.00169293
0.00165561
0.00165535
0.00165526
0.00165734
0.00162004
0.0016199
0.00162004
0.00162198
0.00158519
0.0015849
0.00158482
0.0015869
0.00155019
0.00154988
0.00154988
0.00155191
0.00151548
0.00151513
0.0015152
0.00151709
0.0014807
0.00148051
0.00148046
0.00148246
0.00144667
0.00144636
0.00144636
0.00144829
0.00141204
0.00141161
0.00141161
0.00141356
0.00137733
0.00137733
0.00137731
0.00137929
0.00134395
0.0013441
0.00134409
0.00134603
0.00131198
0.00131115
0.00131114
0.00131284
0.00127821
0.00127745
0.00127745
0.0012792
0.00124181
0.00124145
0.00124145
0.00124341
0.00120358
0.00120368
0.00120369
0.00120596
0.00116458
0.00116524
0.00116524
0.00116769
0.0011275
0.00112816
0.00112815
0.00113051
0.00109453
0.00109483
0.00109483
0.00109678
0.00106519
0.00106445
0.00106445
0.00106587
0.00103587
0.00103508
0.00103508
0.00103641
0.00100558
0.00100506
0.00100506
0.00100659
0.000973577
0.000973305
0.000973305
0.000975052
0.000939733
0.000939599
0.000939598
0.000941511
0.000904595
0.000904523
0.000904523
0.000906528
0.000868758
0.00086872
0.000868721
0.000870773
0.000832609
0.000832584
0.000832585
0.000834658
0.000796356
0.000796328
0.000796328
0.000798407
0.000760068
0.000760041
0.000760041
0.000762121
0.000723761
0.000723733
0.000723733
0.000725814
0.000687459
0.000687433
0.000687433
0.000689513
0.00065115
0.000651122
0.000651122
0.000653203
0.000614842
0.000614815
0.000614815
0.000616895
0.000578534
0.000578506
0.000578507
0.000580588
0.000542226
0.000542196
0.000542197
0.000544278
0.000505917
0.00050589
0.00050589
0.000507972
0.000469607
0.000469579
0.000469579
0.00047166
0.000433296
0.000433268
0.000433268
0.000435349
0.000396985
0.000396958
0.000396958
0.000399039
0.000360675
0.000360647
0.000360647
0.000362727
0.000324364
0.000324336
0.000324336
0.000326417
0.000288052
0.000288025
0.000288025
0.000290104
0.00025174
0.000251713
0.000251712
0.00025379
0.000215428
0.0002154
0.0002154
0.000217477
0.000179114
0.000179089
0.000179089
0.000181162
0.000142797
0.000142773
0.000142773
0.000144838
0.000106474
0.000106452
0.000106451
0.000108499
7.01524e-05
7.01267e-05
7.01255e-05
7.21393e-05
3.46008e-05
3.40298e-05
3.40265e-05
3.58885e-05
6.08005e-06
6.92241e-06
6.92228e-06
5.20703e-06
0.00353803
0.00353563
0.00353568
0.0035381
0.00353565
0.00353567
0.00354194
0.00354189
0.00354194
0.00354194
0.00353565
0.00353552
0.00353806
0.00353567
0.00353554
0.00353796
0.00353325
0.00350406
0.00353245
0.00353248
0.00350595
0.00350587
0.00353341
0.00350401
0.00353247
0.00353247
0.00350593
0.00350594
0.0035324
0.00350586
0.00350592
0.00353326
0.00350403
0.00353242
0.00350591
0.00350597
0.00350402
0.00349929
0.00346568
0.00349638
0.00349636
0.00346794
0.00346798
0.00349927
0.00346571
0.00349636
0.00349636
0.00346794
0.00346795
0.00349634
0.00346803
0.00346788
0.00349928
0.00346566
0.00349634
0.00346789
0.00346787
0.00346563
0.0034602
0.00342241
0.00345787
0.00345792
0.00342553
0.00342548
0.00346023
0.0034224
0.00345791
0.00345791
0.00342551
0.0034255
0.00345788
0.0034255
0.0034255
0.0034602
0.0034224
0.00345786
0.00342546
0.00342548
0.0034224
0.00341621
0.00337459
0.00341397
0.00341403
0.00337791
0.00337796
0.00341623
0.00337461
0.00341394
0.00341396
0.0033779
0.00337794
0.00341397
0.00337796
0.00337792
0.00341621
0.00337458
0.00341397
0.00337789
0.00337789
0.00337457
0.00336811
0.00332591
0.00336574
0.00336572
0.00332917
0.00332919
0.00336813
0.00332591
0.00336574
0.00336571
0.00332914
0.00332914
0.00336571
0.00332916
0.00332914
0.0033681
0.0033259
0.00336571
0.00332914
0.00332913
0.00332589
0.0033195
0.00327794
0.0033171
0.00331713
0.00328116
0.0032812
0.00331951
0.00327797
0.00331708
0.00331709
0.00328114
0.00328116
0.00331708
0.00328119
0.00328116
0.00331949
0.00327792
0.00331707
0.00328113
0.00328115
0.00327793
0.00327165
0.00323065
0.00326928
0.00326928
0.00323379
0.00323382
0.00327168
0.00323066
0.00326926
0.00326928
0.00323378
0.00323381
0.00326926
0.00323381
0.00323376
0.00327163
0.00323066
0.00326925
0.00323376
0.00323377
0.00323064
0.00322447
0.00318425
0.00322205
0.0032221
0.00318724
0.00318734
0.00322448
0.00318426
0.00322206
0.00322207
0.00318725
0.00318724
0.00322205
0.00318727
0.00318723
0.00322447
0.00318425
0.00322203
0.00318725
0.00318724
0.00318423
0.00317821
0.00313892
0.00317578
0.00317576
0.00314182
0.0031419
0.00317823
0.00313896
0.0031758
0.00317581
0.00314182
0.00314183
0.00317578
0.00314186
0.00314181
0.00317822
0.00313894
0.00317577
0.00314182
0.00314182
0.00313892
0.00313302
0.00309449
0.00313058
0.00313058
0.00309729
0.0030973
0.00313307
0.00309453
0.0031306
0.00313062
0.00309727
0.00309731
0.00313062
0.00309732
0.0030973
0.00313304
0.00309449
0.00313061
0.00309728
0.0030973
0.00309448
0.0030887
0.0030508
0.00308627
0.00308637
0.00305356
0.00305361
0.00308878
0.00305084
0.0030863
0.00308628
0.00305357
0.00305354
0.00308626
0.00305358
0.00305354
0.00308872
0.00305082
0.00308627
0.00305355
0.00305356
0.00305079
0.00304511
0.00300774
0.00304272
0.00304273
0.00301047
0.00301042
0.00304516
0.00300766
0.00304271
0.00304272
0.00301047
0.00301039
0.00304269
0.00301041
0.00301036
0.00304512
0.0030077
0.00304265
0.00301045
0.00301036
0.00300768
0.0030021
0.00296497
0.00299966
0.00299966
0.00296764
0.00296761
0.00300206
0.002965
0.00299967
0.00299976
0.00296765
0.00296769
0.00299965
0.00296772
0.00296764
0.00300209
0.00296498
0.00299967
0.00296775
0.00296764
0.00296494
0.00295937
0.00292251
0.00295694
0.00295698
0.00292519
0.00292542
0.00295946
0.00292269
0.00295694
0.00295715
0.00292519
0.00292531
0.00295711
0.00292538
0.00292538
0.00295946
0.00292264
0.00295708
0.00292532
0.00292535
0.00292262
0.00291699
0.00288036
0.00291463
0.00291468
0.00288307
0.00288322
0.00291717
0.00288045
0.00291463
0.00291489
0.00288311
0.00288321
0.0029148
0.00288313
0.00288323
0.00291723
0.00288057
0.00291485
0.00288313
0.00288325
0.00288055
0.0028749
0.00283862
0.0028726
0.00287259
0.00284137
0.0028417
0.00287503
0.00283898
0.00287258
0.00287289
0.0028414
0.00284146
0.0028728
0.00284171
0.00284146
0.00287523
0.00283876
0.0028728
0.0028415
0.00284148
0.00283888
0.00283324
0.00279721
0.00283095
0.00283123
0.00280003
0.00279979
0.00283356
0.00279716
0.00283092
0.00283131
0.00280002
0.00279992
0.00283119
0.00279991
0.00280001
0.00283345
0.00279729
0.00283115
0.00280008
0.00280001
0.00279735
0.00279186
0.00275622
0.00278959
0.00278959
0.00275921
0.00275903
0.00279191
0.00275612
0.00278952
0.00278973
0.00275921
0.00275904
0.00278991
0.00275914
0.00275902
0.00279199
0.00275612
0.00278985
0.0027591
0.00275899
0.00275626
0.00275092
0.00271548
0.00274878
0.00274859
0.00271831
0.0027184
0.00275087
0.00271535
0.00274877
0.00274849
0.00271829
0.00271844
0.00274894
0.0027185
0.0027182
0.00275083
0.00271521
0.00274891
0.00271823
0.00271806
0.00271549
0.00271033
0.00267484
0.00270828
0.00270806
0.00267773
0.00267762
0.00271017
0.0026751
0.0027084
0.00270832
0.00267771
0.00267764
0.00270806
0.00267764
0.00267783
0.00271022
0.00267494
0.00270805
0.00267764
0.00267784
0.00267495
0.00266955
0.00263477
0.00266744
0.00266757
0.00263816
0.00263818
0.0026697
0.00263494
0.00266759
0.00266779
0.002638
0.00263773
0.00266766
0.00263789
0.00263784
0.00266965
0.00263456
0.00266762
0.0026379
0.0026378
0.00263484
0.00262987
0.00259475
0.00262806
0.0026279
0.00259779
0.00259807
0.00262984
0.00259486
0.00262809
0.002628
0.00259775
0.00259784
0.00262768
0.00259805
0.00259813
0.0026297
0.00259481
0.00262769
0.00259792
0.00259811
0.00259505
0.00258962
0.00255536
0.00258801
0.00258815
0.00255846
0.00255841
0.0025899
0.00255495
0.002588
0.00258805
0.00255844
0.00255828
0.00258798
0.00255837
0.00255852
0.00258979
0.00255524
0.00258797
0.00255835
0.00255851
0.00255547
0.00255022
0.00251645
0.00254842
0.00254891
0.00251933
0.0025191
0.00255054
0.00251618
0.0025484
0.00254855
0.00251933
0.00251904
0.00254848
0.00251914
0.00251915
0.00255034
0.00251606
0.00254848
0.00251906
0.0025192
0.00251617
0.0025116
0.00247693
0.00250955
0.00250909
0.00248007
0.00248037
0.00251081
0.00247738
0.00250954
0.00250915
0.00248008
0.00248028
0.00250932
0.00248026
0.00248014
0.00251089
0.00247771
0.00250937
0.00248022
0.0024801
0.0024773
0.00247203
0.0024384
0.00247045
0.00247071
0.00244127
0.00244131
0.00247301
0.00243864
0.00247039
0.00247037
0.00244129
0.0024413
0.00247032
0.00244129
0.0024414
0.00247254
0.00243788
0.0024703
0.00244129
0.0024414
0.00243932
0.00243361
0.00240008
0.00243167
0.00243158
0.00240267
0.00240268
0.00243341
0.00239918
0.0024317
0.00243173
0.00240265
0.00240273
0.00243179
0.00240272
0.00240247
0.00243337
0.00240024
0.00243173
0.0024027
0.00240249
0.0023994
0.00239494
0.00236198
0.002393
0.00239317
0.00236443
0.00236435
0.00239481
0.00236215
0.00239296
0.00239299
0.00236444
0.00236439
0.00239297
0.00236436
0.00236468
0.00239502
0.00236154
0.00239294
0.0023645
0.0023646
0.00236318
0.00235715
0.00232355
0.00235483
0.00235471
0.00232613
0.00232624
0.00235692
0.00232341
0.00235486
0.002355
0.00232612
0.00232604
0.002355
0.00232622
0.00232598
0.00235697
0.00232363
0.00235496
0.00232602
0.00232598
0.00232311
0.00231859
0.00228562
0.0023166
0.0023167
0.00228806
0.00228804
0.0023187
0.0022856
0.00231657
0.00231653
0.00228807
0.00228812
0.0023165
0.00228801
0.00228808
0.0023185
0.00228578
0.00231652
0.0022881
0.00228809
0.00228557
0.00228068
0.0022477
0.00227859
0.00227859
0.00225032
0.0022503
0.00228054
0.00224802
0.00227862
0.00227863
0.00225031
0.00225029
0.00227869
0.00225031
0.00225035
0.00228091
0.00224772
0.00227872
0.00225029
0.00225031
0.00224795
0.00224283
0.0022102
0.00224088
0.00224089
0.00221257
0.00221253
0.00224312
0.00220986
0.00224086
0.00224089
0.00221257
0.00221255
0.00224084
0.00221252
0.00221246
0.00224283
0.00221014
0.00224081
0.00221255
0.00221248
0.00220991
0.00220528
0.00217243
0.00220325
0.0022031
0.00217507
0.00217524
0.00220505
0.0021728
0.00220324
0.00220312
0.00217508
0.00217517
0.00220318
0.00217523
0.00217519
0.00220525
0.00217254
0.00220321
0.00217517
0.00217519
0.00217265
0.00216758
0.00213506
0.00216565
0.00216592
0.00213752
0.00213749
0.00216786
0.00213495
0.00216567
0.00216577
0.00213751
0.00213747
0.00216575
0.00213751
0.00213743
0.00216758
0.00213508
0.00216574
0.00213746
0.00213741
0.00213498
0.00213017
0.00209796
0.00212827
0.00212805
0.00210047
0.00210034
0.00213007
0.00209793
0.00212825
0.00212813
0.00210049
0.00210052
0.00212812
0.00210033
0.00210052
0.00213018
0.00209806
0.0021281
0.00210051
0.00210056
0.00209813
0.00209306
0.00206074
0.00209115
0.00209125
0.00206319
0.00206339
0.00209317
0.00206078
0.00209118
0.00209125
0.00206317
0.0020632
0.00209126
0.00206338
0.00206322
0.00209316
0.00206076
0.0020913
0.00206323
0.00206319
0.00206074
0.00205588
0.00202379
0.00205391
0.00205398
0.00202616
0.00202605
0.00205587
0.00202368
0.00205389
0.00205387
0.00202617
0.00202613
0.00205388
0.00202607
0.00202616
0.00205585
0.00202376
0.00205385
0.00202611
0.00202616
0.00202382
0.00201891
0.00198695
0.00201694
0.00201686
0.00198933
0.00198934
0.00201882
0.00198698
0.00201695
0.00201692
0.00198932
0.0019894
0.00201697
0.00198932
0.0019893
0.00201893
0.00198699
0.00201698
0.00198941
0.00198931
0.00198688
0.00198212
0.00195029
0.00198014
0.00198015
0.00195264
0.00195264
0.00198214
0.00195032
0.00198013
0.0019802
0.00195265
0.00195254
0.00198009
0.00195266
0.00195266
0.00198211
0.00195026
0.00198009
0.00195254
0.00195266
0.00195037
0.00194544
0.00191379
0.00194347
0.0019435
0.00191607
0.00191608
0.00194548
0.00191375
0.00194348
0.0019434
0.00191604
0.00191615
0.00194355
0.00191606
0.00191606
0.00194546
0.00191384
0.00194354
0.00191616
0.00191606
0.00191373
0.00190897
0.00187735
0.00190697
0.00190694
0.0018796
0.0018796
0.00190891
0.00187739
0.00190695
0.00190702
0.00187963
0.00187957
0.00190692
0.00187961
0.00187961
0.00190898
0.00187732
0.00190692
0.00187955
0.00187962
0.00187738
0.00187254
0.00184119
0.0018705
0.00187054
0.00184339
0.00184339
0.00187259
0.00184115
0.00187052
0.00187048
0.00184338
0.00184336
0.00187054
0.00184339
0.00184339
0.00187252
0.00184117
0.00187056
0.00184338
0.00184339
0.00184117
0.00183638
0.00180503
0.00183438
0.00183433
0.00180721
0.00180722
0.00183633
0.00180506
0.00183437
0.00183434
0.00180722
0.00180728
0.00183435
0.00180721
0.0018072
0.00183637
0.00180509
0.00183433
0.00180725
0.0018072
0.00180501
0.00180025
0.00176914
0.00179818
0.00179822
0.00177129
0.00177126
0.00180027
0.00176912
0.00179819
0.00179826
0.00177128
0.0017712
0.00179817
0.00177126
0.00177125
0.00180029
0.00176906
0.0017982
0.00177123
0.00177126
0.00176913
0.00176435
0.00173324
0.00176234
0.00176229
0.00173537
0.00173543
0.00176434
0.00173329
0.00176233
0.00176221
0.00173538
0.00173544
0.00176233
0.00173544
0.00173544
0.00176428
0.00173333
0.0017623
0.0017354
0.00173541
0.00173328
0.00172849
0.00169771
0.00172641
0.00172649
0.00169978
0.00169972
0.00172852
0.00169764
0.00172642
0.00172655
0.00169979
0.00169979
0.00172645
0.00169972
0.00169971
0.00172858
0.00169767
0.00172648
0.00169983
0.00169976
0.00169766
0.00169297
0.00166208
0.00169094
0.00169084
0.0016642
0.00166424
0.0016929
0.00166214
0.00169095
0.00169084
0.00166421
0.00166414
0.00169088
0.00166424
0.00166426
0.0016929
0.00166207
0.00169087
0.0016641
0.00166415
0.0016621
0.00165731
0.00162667
0.00165525
0.00165536
0.0016287
0.00162873
0.00165738
0.00162668
0.00165527
0.00165529
0.00162867
0.00162883
0.00165533
0.00162872
0.00162868
0.00165734
0.00162678
0.00165526
0.00162884
0.00162874
0.00162669
0.00162196
0.00159162
0.00161991
0.0016199
0.00159367
0.00159363
0.00162196
0.00159158
0.00161989
0.00162001
0.00159372
0.00159364
0.00161989
0.00159366
0.00159367
0.00162205
0.00159154
0.00161995
0.00159362
0.00159367
0.0015916
0.00158692
0.00155656
0.00158491
0.00158488
0.0015586
0.00155861
0.00158689
0.00155657
0.00158497
0.00158485
0.00155858
0.00155852
0.00158491
0.00155858
0.00155861
0.00158684
0.00155655
0.0015849
0.00155854
0.00155862
0.00155659
0.00155188
0.00152178
0.00154989
0.0015499
0.00152383
0.00152385
0.0015519
0.00152179
0.00154985
0.00154984
0.00152381
0.00152387
0.0015499
0.00152384
0.00152384
0.00155189
0.00152182
0.00154992
0.00152391
0.00152384
0.00152177
0.0015171
0.0014871
0.00151513
0.00151514
0.00148908
0.00148907
0.00151711
0.0014871
0.00151512
0.00151517
0.00148909
0.00148909
0.0015151
0.00148909
0.00148904
0.00151714
0.00148707
0.0015151
0.00148903
0.00148905
0.00148707
0.00148248
0.00145289
0.0014805
0.0014805
0.00145494
0.00145494
0.00148248
0.0014529
0.00148051
0.00148049
0.00145493
0.00145492
0.00148048
0.00145495
0.00145497
0.00148246
0.00145289
0.00148048
0.00145492
0.00145496
0.00145293
0.00144826
0.00141824
0.00144636
0.00144635
0.00142031
0.0014203
0.00144827
0.00141824
0.00144635
0.00144634
0.00142031
0.00142029
0.00144639
0.00142029
0.00142031
0.00144826
0.00141824
0.00144638
0.0014203
0.00142031
0.00141824
0.00141356
0.00138384
0.00141162
0.00141161
0.0013858
0.00138579
0.00141356
0.00138384
0.00141162
0.00141161
0.0013858
0.00138579
0.00141162
0.0013858
0.00138581
0.00141356
0.00138384
0.00141162
0.00138579
0.00138581
0.00138385
0.00137928
0.00135046
0.00137732
0.00137732
0.0013523
0.00135229
0.00137928
0.00135046
0.00137733
0.00137732
0.0013523
0.0013523
0.00137733
0.0013523
0.0013523
0.00137928
0.00135046
0.00137733
0.00135229
0.0013523
0.00135046
0.00134603
0.00131729
0.0013441
0.00134409
0.0013194
0.0013194
0.00134604
0.0013173
0.0013441
0.0013441
0.00131939
0.00131939
0.0013441
0.0013194
0.00131939
0.00134604
0.00131729
0.00134409
0.00131939
0.00131939
0.00131729
0.00131284
0.00128386
0.00131115
0.00131115
0.00128608
0.00128608
0.00131284
0.00128386
0.00131114
0.00131115
0.00128608
0.00128608
0.00131115
0.00128608
0.00128608
0.00131284
0.00128386
0.00131114
0.00128608
0.00128608
0.00128386
0.00127919
0.00124838
0.00127745
0.00127745
0.00125064
0.00125064
0.0012792
0.00124838
0.00127744
0.00127745
0.00125064
0.00125064
0.00127745
0.00125064
0.00125064
0.0012792
0.00124839
0.00127745
0.00125064
0.00125064
0.00124838
0.00124341
0.00121109
0.00124145
0.00124145
0.00121323
0.00121323
0.00124341
0.00121109
0.00124145
0.00124145
0.00121323
0.00121323
0.00124144
0.00121323
0.00121323
0.00124342
0.00121109
0.00124145
0.00121323
0.00121323
0.00121109
0.00120596
0.00117289
0.00120368
0.00120368
0.00117489
0.00117488
0.00120595
0.00117289
0.00120369
0.00120369
0.00117489
0.00117489
0.00120368
0.00117489
0.00117489
0.00120596
0.00117289
0.00120368
0.00117489
0.00117488
0.00117289
0.00116769
0.00113534
0.00116524
0.00116524
0.0011371
0.0011371
0.00116769
0.00113534
0.00116524
0.00116525
0.0011371
0.0011371
0.00116524
0.0011371
0.0011371
0.00116769
0.00113534
0.00116524
0.0011371
0.0011371
0.00113534
0.0011305
0.0011011
0.00112816
0.00112816
0.00110279
0.00110279
0.0011305
0.0011011
0.00112815
0.00112815
0.00110279
0.00110279
0.00112816
0.00110279
0.00110279
0.0011305
0.0011011
0.00112816
0.00110279
0.0011028
0.0011011
0.00109678
0.00106993
0.00109483
0.00109483
0.00107193
0.00107193
0.00109678
0.00106994
0.00109483
0.00109483
0.00107193
0.00107193
0.00109483
0.00107193
0.00107193
0.00109678
0.00106994
0.00109483
0.00107193
0.00107193
0.00106993
0.00106587
0.00104038
0.00106445
0.00106445
0.00104243
0.00104243
0.00106587
0.00104038
0.00106445
0.00106445
0.00104243
0.00104243
0.00106445
0.00104243
0.00104243
0.00106587
0.00104038
0.00106445
0.00104243
0.00104243
0.00104038
0.00103641
0.00101072
0.00103508
0.00103508
0.00101271
0.0010127
0.00103641
0.00101072
0.00103508
0.00103508
0.00101271
0.0010127
0.00103508
0.00101271
0.00101271
0.00103641
0.00101072
0.00103508
0.00101271
0.00101271
0.00101072
0.00100659
0.000979466
0.00100506
0.00100506
0.000981436
0.000981436
0.00100659
0.000979466
0.00100506
0.00100506
0.000981436
0.000981437
0.00100506
0.000981436
0.000981436
0.00100659
0.000979466
0.00100506
0.000981436
0.000981436
0.000979465
0.000975054
0.000946174
0.000973305
0.000973305
0.000948182
0.000948182
0.000975053
0.000946175
0.000973305
0.000973305
0.000948182
0.000948182
0.000973304
0.000948182
0.000948182
0.000975055
0.000946174
0.000973304
0.000948182
0.000948182
0.000946174
0.000941511
0.00091134
0.000939599
0.000939599
0.000913381
0.000913382
0.000941511
0.00091134
0.000939599
0.000939599
0.000913381
0.000913382
0.000939598
0.000913381
0.000913381
0.000941511
0.00091134
0.000939598
0.000913381
0.000913381
0.000911339
0.000906529
0.000875655
0.000904523
0.000904523
0.000877713
0.000877713
0.000906528
0.000875655
0.000904523
0.000904523
0.000877713
0.000877714
0.000904523
0.000877713
0.000877714
0.000906529
0.000875655
0.000904523
0.000877714
0.000877714
0.000875655
0.000870772
0.000839572
0.00086872
0.00086872
0.000841636
0.000841636
0.000870772
0.000839572
0.00086872
0.000868721
0.000841636
0.000841636
0.000868721
0.000841636
0.000841636
0.000870773
0.000839572
0.000868721
0.000841636
0.000841636
0.000839572
0.000834658
0.000803329
0.000832585
0.000832584
0.000805396
0.000805395
0.000834658
0.000803329
0.000832584
0.000832585
0.000805396
0.000805395
0.000832585
0.000805396
0.000805396
0.000834658
0.000803329
0.000832585
0.000805396
0.000805396
0.000803329
0.000798407
0.000767047
0.000796328
0.000796328
0.000769116
0.000769116
0.000798407
0.000767047
0.000796328
0.000796328
0.000769116
0.000769116
0.000796329
0.000769116
0.000769116
0.000798407
0.000767047
0.000796329
0.000769116
0.000769116
0.000767047
0.000762121
0.000730741
0.000760041
0.000760041
0.000732809
0.000732809
0.000762121
0.000730741
0.000760041
0.000760041
0.000732809
0.000732809
0.000760041
0.000732809
0.000732809
0.000762121
0.000730741
0.000760041
0.000732809
0.000732809
0.000730741
0.000725814
0.000694439
0.000723733
0.000723733
0.000696508
0.000696508
0.000725814
0.000694439
0.000723733
0.000723733
0.000696508
0.000696508
0.000723733
0.000696508
0.000696508
0.000725814
0.000694439
0.000723733
0.000696508
0.000696508
0.000694439
0.000689513
0.000658131
0.000687433
0.000687432
0.0006602
0.0006602
0.000689513
0.000658131
0.000687432
0.000687433
0.0006602
0.0006602
0.000687433
0.0006602
0.0006602
0.000689513
0.000658131
0.000687433
0.0006602
0.0006602
0.000658131
0.000653203
0.000621822
0.000651122
0.000651121
0.000623891
0.000623891
0.000653203
0.000621822
0.000651121
0.000651122
0.000623891
0.000623891
0.000651122
0.000623891
0.000623892
0.000653203
0.000621821
0.000651122
0.000623891
0.000623891
0.000621822
0.000616895
0.000585515
0.000614815
0.000614815
0.000587583
0.000587583
0.000616895
0.000585515
0.000614815
0.000614815
0.000587583
0.000587583
0.000614815
0.000587583
0.000587583
0.000616895
0.000585514
0.000614815
0.000587583
0.000587583
0.000585514
0.000580588
0.000549204
0.000578507
0.000578506
0.000551273
0.000551273
0.000580587
0.000549205
0.000578507
0.000578507
0.000551273
0.000551273
0.000578507
0.000551273
0.000551274
0.000580588
0.000549204
0.000578506
0.000551273
0.000551273
0.000549204
0.000544277
0.000512899
0.000542196
0.000542196
0.000514968
0.000514968
0.000544277
0.000512899
0.000542196
0.000542196
0.000514968
0.000514968
0.000542197
0.000514968
0.000514969
0.000544277
0.000512899
0.000542197
0.000514968
0.000514968
0.000512899
0.000507971
0.000476586
0.00050589
0.00050589
0.000478655
0.000478655
0.000507971
0.000476586
0.00050589
0.00050589
0.000478655
0.000478655
0.000505891
0.000478655
0.000478655
0.000507971
0.000476586
0.00050589
0.000478655
0.000478655
0.000476586
0.000471659
0.000440277
0.000469579
0.000469579
0.000442346
0.000442346
0.000471659
0.000440277
0.000469579
0.000469579
0.000442346
0.000442346
0.000469579
0.000442346
0.000442346
0.000471659
0.000440277
0.000469579
0.000442346
0.000442346
0.000440277
0.000435349
0.000403966
0.000433268
0.000433267
0.000406035
0.000406035
0.000435348
0.000403967
0.000433268
0.000433267
0.000406035
0.000406035
0.000433268
0.000406035
0.000406035
0.000435349
0.000403966
0.000433268
0.000406035
0.000406035
0.000403966
0.000399039
0.000367655
0.000396958
0.000396958
0.000369724
0.000369723
0.000399039
0.000367654
0.000396958
0.000396958
0.000369724
0.000369724
0.000396958
0.000369724
0.000369724
0.000399039
0.000367654
0.000396958
0.000369724
0.000369724
0.000367654
0.000362727
0.000331345
0.000360647
0.000360647
0.000333413
0.000333413
0.000362726
0.000331345
0.000360647
0.000360647
0.000333412
0.000333413
0.000360648
0.000333413
0.000333413
0.000362726
0.000331345
0.000360647
0.000333413
0.000333413
0.000331345
0.000326417
0.000295032
0.000324336
0.000324336
0.000297101
0.000297101
0.000326416
0.000295033
0.000324336
0.000324336
0.000297101
0.000297101
0.000324336
0.000297101
0.000297101
0.000326416
0.000295032
0.000324336
0.000297101
0.000297101
0.000295032
0.000290104
0.00025872
0.000288025
0.000288025
0.000260788
0.000260788
0.000290104
0.00025872
0.000288024
0.000288025
0.000260788
0.000260788
0.000288025
0.000260788
0.000260788
0.000290104
0.000258719
0.000288025
0.000260788
0.000260788
0.00025872
0.00025379
0.00022241
0.000251712
0.000251712
0.000224476
0.000224476
0.000253789
0.00022241
0.000251713
0.000251713
0.000224476
0.000224476
0.000251713
0.000224476
0.000224476
0.00025379
0.000222409
0.000251712
0.000224476
0.000224476
0.000222409
0.000217477
0.000186098
0.0002154
0.0002154
0.000188163
0.000188163
0.000217476
0.000186099
0.0002154
0.0002154
0.000188163
0.000188163
0.0002154
0.000188163
0.000188164
0.000217477
0.000186098
0.0002154
0.000188164
0.000188164
0.000186099
0.000181162
0.000149782
0.000179089
0.000179089
0.000151845
0.000151845
0.000181161
0.000149783
0.000179088
0.000179089
0.000151845
0.000151845
0.000179089
0.000151845
0.000151845
0.000181162
0.000149783
0.000179089
0.000151845
0.000151845
0.000149783
0.000144837
0.000113466
0.000142773
0.000142774
0.000115524
0.000115524
0.000144837
0.000113466
0.000142773
0.000142774
0.000115524
0.000115523
0.000142773
0.000115524
0.000115524
0.000144838
0.000113465
0.000142773
0.000115524
0.000115524
0.000113466
0.0001085
7.71442e-05
0.000106452
0.000106452
7.91967e-05
7.91962e-05
0.0001085
7.71439e-05
0.000106452
0.000106452
7.91958e-05
7.91954e-05
0.000106451
7.9197e-05
7.91965e-05
0.0001085
7.71423e-05
0.000106451
7.91963e-05
7.91965e-05
7.71431e-05
7.21407e-05
4.08642e-05
7.0127e-05
7.0126e-05
4.29132e-05
4.29147e-05
7.21393e-05
4.08657e-05
7.01264e-05
7.01252e-05
4.29111e-05
4.29109e-05
7.01265e-05
4.29128e-05
4.29103e-05
7.21394e-05
4.08613e-05
7.01262e-05
4.29102e-05
4.29091e-05
4.08612e-05
3.58921e-05
8.43335e-06
3.40302e-05
3.40311e-05
1.1454e-05
1.14536e-05
3.58926e-05
8.43312e-06
3.40288e-05
3.40269e-05
1.14549e-05
1.14487e-05
3.40265e-05
1.14535e-05
1.14469e-05
3.58889e-05
8.43016e-06
3.4026e-05
1.14521e-05
1.1452e-05
8.42867e-06
5.21001e-06
6.92221e-06
6.92156e-06
5.21057e-06
6.92251e-06
6.91865e-06
6.07962e-06
6.07928e-06
6.07834e-06
6.91762e-06
5.209e-06
6.92135e-06
0.00354514
0.00354774
0.00354654
0.00354653
0.0035738
0.003548
0.00357762
0.00354799
0.00357377
0.00354778
0.00354796
0.00357717
0.00355869
0.00358051
0.00358043
0.00351759
0.00353116
0.00353514
0.00350975
0.00350792
0.00351329
0.00351745
0.00353114
0.00353512
0.00350983
0.00353345
0.00353349
0.00353349
0.0035069
0.00350685
0.00350685
0.0035069
0.0035171
0.00352642
0.00353399
0.00352466
0.0035361
0.00351404
0.00352493
0.00350807
0.00351329
0.00351718
0.00353408
0.00352897
0.00352474
0.00353622
0.00352497
0.00351435
0.00353493
0.00353488
0.00352198
0.00351419
0.00351418
0.00348995
0.00350417
0.00350398
0.00348806
0.00350138
0.00348713
0.0034899
0.00350414
0.00350398
0.00348804
0.00349782
0.00349782
0.00349787
0.00346985
0.00346983
0.00346981
0.00346985
0.00348781
0.00350269
0.00349635
0.00348713
0.00350112
0.00348836
0.00348698
0.00350139
0.00348706
0.0034878
0.00349637
0.00350274
0.00348709
0.00350115
0.00348697
0.00348832
0.00350445
0.00350443
0.00348549
0.00348868
0.00348867
0.00344761
0.00346245
0.00346328
0.00344638
0.00346132
0.0034455
0.0034476
0.00346244
0.00346325
0.0034464
0.00345984
0.00345982
0.00345986
0.00342724
0.0034272
0.00342722
0.00342726
0.00344647
0.00346197
0.00345795
0.00344755
0.00346096
0.00344695
0.00344751
0.00346131
0.00344546
0.00344643
0.00345794
0.00346199
0.00344746
0.00346097
0.00344745
0.00344689
0.00346275
0.00346274
0.00344479
0.00344673
0.00344675
0.0034013
0.00341771
0.00341912
0.00339982
0.00341703
0.0033993
0.00340117
0.00341772
0.00341917
0.00339983
0.00341558
0.00341558
0.00341563
0.00337942
0.00337942
0.00337942
0.00337944
0.0034004
0.0034176
0.0034139
0.00340209
0.003417
0.00340057
0.00340211
0.00341704
0.00339925
0.00340039
0.0034139
0.00341759
0.00340208
0.00341698
0.00340209
0.0034005
0.00341783
0.00341781
0.0033988
0.00339993
0.00339992
0.00335213
0.00336928
0.0033706
0.00335093
0.0033689
0.00335059
0.00335213
0.00336927
0.00337055
0.00335094
0.00336718
0.00336719
0.00336721
0.00333061
0.00333058
0.0033306
0.00333063
0.00335171
0.00336931
0.00336572
0.0033535
0.00336892
0.00335162
0.00335348
0.00336883
0.00335061
0.00335169
0.00336569
0.00336928
0.00335351
0.00336889
0.00335349
0.00335155
0.0033693
0.00336931
0.00335019
0.00335105
0.00335103
0.0033032
0.00332043
0.00332144
0.00330233
0.00332014
0.00330209
0.00330316
0.00332041
0.00332144
0.00330232
0.00331847
0.00331849
0.00331852
0.00328246
0.00328245
0.00328246
0.00328248
0.00330315
0.00332046
0.00331712
0.00330509
0.00332019
0.00330294
0.00330512