/*--------------------------------*- C++ -*----------------------------------*\
| =========                 |                                                 |
| \\      /  F ield         | OpenFOAM: The Open Source CFD Toolbox           |
|  \\    /   O peration     | Version:  v2012                                 |
|   \\  /    A nd           | Website:  www.openfoam.com                      |
|    \\/     M anipulation  |                                                 |
\*---------------------------------------------------------------------------*/
FoamFile
{
    version     2.0;
    format      ascii;
    class       volScalarField;
    location    "500";
    object      k;
}
// * * * * * * * * * * * * * * * * * * * * * * * * * * * * * * * * * * * * * //

dimensions      [0 2 -2 0 0 0 0];


internalField   nonuniform List<scalar> 
85864
(
2.12017e-05
3.68996e-05
3.68859e-05
4.21479e-05
2.19509e-05
3.78315e-05
3.78351e-05
4.28513e-05
2.27599e-05
3.86693e-05
3.86639e-05
4.35579e-05
2.35541e-05
3.95445e-05
3.958e-05
4.41862e-05
2.43384e-05
4.03992e-05
4.03535e-05
4.49134e-05
2.51518e-05
4.11206e-05
4.11671e-05
4.5518e-05
2.59909e-05
4.19577e-05
4.19122e-05
4.60475e-05
2.67766e-05
4.26833e-05
4.27088e-05
4.67343e-05
2.76122e-05
4.33711e-05
4.34817e-05
4.72053e-05
2.83704e-05
4.4022e-05
4.39108e-05
4.77124e-05
2.92272e-05
4.47783e-05
4.47702e-05
4.83475e-05
2.99844e-05
4.53313e-05
4.52806e-05
4.87431e-05
3.071e-05
4.60031e-05
4.6132e-05
4.94237e-05
3.15101e-05
4.6292e-05
4.62362e-05
4.93542e-05
3.21659e-05
4.73421e-05
4.73537e-05
5.02645e-05
3.29298e-05
4.741e-05
4.74573e-05
5.07042e-05
3.3699e-05
4.8241e-05
4.76802e-05
5.08579e-05
3.39725e-05
4.8363e-05
4.92197e-05
5.10245e-05
3.52309e-05
4.92118e-05
4.86092e-05
5.0767e-05
3.52549e-05
4.93472e-05
4.87638e-05
5.4104e-05
3.60867e-05
4.89183e-05
5.08726e-05
5.10985e-05
3.67618e-05
5.10778e-05
4.85268e-05
4.97187e-05
3.7148e-05
4.99207e-05
5.19661e-05
5.59171e-05
3.77673e-05
5.05058e-05
5.0589e-05
5.22097e-05
3.7998e-05
5.12418e-05
5.01e-05
5.17012e-05
3.84363e-05
5.11741e-05
5.16182e-05
5.42216e-05
3.91351e-05
5.1716e-05
5.15537e-05
5.41936e-05
3.94998e-05
5.17672e-05
5.1852e-05
5.33145e-05
3.96671e-05
5.18795e-05
5.20842e-05
5.42645e-05
4.00053e-05
5.21681e-05
5.20322e-05
5.42527e-05
4.03878e-05
5.22141e-05
5.21619e-05
5.39173e-05
4.06711e-05
5.24455e-05
5.24712e-05
5.4379e-05
4.09302e-05
5.2624e-05
5.26103e-05
5.46071e-05
4.11644e-05
5.26595e-05
5.26744e-05
5.44813e-05
4.13609e-05
5.27842e-05
5.27457e-05
5.46754e-05
4.15416e-05
5.27775e-05
5.28234e-05
5.45879e-05
4.16721e-05
5.28772e-05
5.28308e-05
5.47761e-05
4.18679e-05
5.29211e-05
5.29394e-05
5.47105e-05
4.19146e-05
5.28674e-05
5.2856e-05
5.46898e-05
4.20656e-05
5.29514e-05
5.29731e-05
5.47762e-05
4.21354e-05
5.29238e-05
5.28573e-05
5.47089e-05
4.2151e-05
5.28245e-05
5.28849e-05
5.46466e-05
4.22529e-05
5.28891e-05
5.28426e-05
5.46728e-05
4.22782e-05
5.28155e-05
5.28446e-05
5.47479e-05
4.22371e-05
5.26731e-05
5.26457e-05
5.42883e-05
4.23323e-05
5.28147e-05
5.28193e-05
5.48315e-05
4.2233e-05
5.24899e-05
5.25009e-05
5.42568e-05
4.18291e-05
5.14093e-05
5.13552e-05
5.38848e-05
4.21565e-05
4.26065e-05
3.69219e-05
3.69012e-05
3.75545e-05
3.7619e-05
4.21415e-05
4.27282e-05
3.69193e-05
3.68854e-05
3.75523e-05
3.76096e-05
3.69138e-05
3.76167e-05
3.75863e-05
4.20977e-05
4.27279e-05
3.69113e-05
3.76084e-05
3.75838e-05
4.26882e-05
4.27353e-05
4.34896e-05
3.77521e-05
3.78338e-05
3.84996e-05
3.84448e-05
4.28827e-05
4.33315e-05
3.77507e-05
3.78362e-05
3.84974e-05
3.8438e-05
3.78115e-05
3.84458e-05
3.84913e-05
4.28868e-05
4.33357e-05
3.78098e-05
3.84409e-05
3.84895e-05
4.34124e-05
4.36858e-05
4.40866e-05
3.87543e-05
3.86676e-05
3.93638e-05
3.93378e-05
4.34973e-05
4.40816e-05
3.87522e-05
3.86611e-05
3.93625e-05
3.93881e-05
3.86992e-05
3.93348e-05
3.93226e-05
4.35065e-05
4.41471e-05
3.86972e-05
3.93862e-05
3.93201e-05
4.40296e-05
4.41964e-05
4.46889e-05
3.95446e-05
3.95479e-05
4.01406e-05
4.01813e-05
4.42295e-05
4.47681e-05
3.95446e-05
3.95812e-05
4.0139e-05
4.01282e-05
3.95355e-05
4.01801e-05
4.01581e-05
4.42771e-05
4.46612e-05
3.95344e-05
4.01293e-05
4.01582e-05
4.47472e-05
4.48439e-05
4.53251e-05
4.03548e-05
4.04012e-05
4.09471e-05
4.09612e-05
4.49237e-05
4.53031e-05
4.03511e-05
4.03546e-05
4.09452e-05
4.09882e-05
4.03833e-05
4.09613e-05
4.10241e-05
4.48333e-05
4.53744e-05
4.03813e-05
4.09898e-05
4.10218e-05
4.54136e-05
4.54755e-05
4.60507e-05
4.11423e-05
4.11185e-05
4.17967e-05
4.17281e-05
4.54039e-05
4.59902e-05
4.11424e-05
4.1162e-05
4.1796e-05
4.17091e-05
4.11945e-05
4.17287e-05
4.17012e-05
4.54853e-05
4.5917e-05
4.11935e-05
4.1711e-05
4.17008e-05
4.58873e-05
4.61675e-05
4.64546e-05
4.19844e-05
4.19596e-05
4.24475e-05
4.25285e-05
4.61753e-05
4.65772e-05
4.19836e-05
4.19134e-05
4.24431e-05
4.25163e-05
4.18963e-05
4.25238e-05
4.25212e-05
4.60705e-05
4.66067e-05
4.18958e-05
4.2514e-05
4.25174e-05
4.66055e-05
4.66046e-05
4.71635e-05
4.26365e-05
4.26854e-05
4.32479e-05
4.31865e-05
4.66713e-05
4.70716e-05
4.26312e-05
4.27083e-05
4.32501e-05
4.33068e-05
4.27096e-05
4.31893e-05
4.32139e-05
4.67576e-05
4.72413e-05
4.27047e-05
4.33105e-05
4.32161e-05
4.70883e-05
4.72562e-05
4.75053e-05
4.34157e-05
4.33709e-05
4.38222e-05
4.38822e-05
4.72073e-05
4.76044e-05
4.3421e-05
4.34808e-05
4.38221e-05
4.37878e-05
4.33884e-05
4.38798e-05
4.38751e-05
4.73271e-05
4.74166e-05
4.33926e-05
4.37884e-05
4.38761e-05
4.75999e-05
4.76465e-05
4.83493e-05
4.39855e-05
4.4022e-05
4.46354e-05
4.45612e-05
4.77071e-05
4.82317e-05
4.39826e-05
4.39058e-05
4.46305e-05
4.45547e-05
4.40302e-05
4.45625e-05
4.45574e-05
4.74895e-05
4.82635e-05
4.40284e-05
4.45584e-05
4.45508e-05
4.82012e-05
4.84653e-05
4.86276e-05
4.48263e-05
4.47781e-05
4.51983e-05
4.52335e-05
4.84087e-05
4.867e-05
4.48217e-05
4.47703e-05
4.52028e-05
4.51447e-05
4.47466e-05
4.52322e-05
4.52447e-05
4.8405e-05
4.85362e-05
4.47407e-05
4.51454e-05
4.5248e-05
4.86764e-05
4.87033e-05
4.90535e-05
4.53238e-05
4.53344e-05
4.57722e-05
4.5817e-05
4.87252e-05
4.92178e-05
4.53281e-05
4.52775e-05
4.5762e-05
4.59636e-05
4.53506e-05
4.58109e-05
4.57801e-05
4.86178e-05
4.94933e-05
4.53532e-05
4.59614e-05
4.57748e-05
4.92119e-05
4.91217e-05
4.96958e-05
4.58645e-05
4.60102e-05
4.63752e-05
4.6228e-05
4.93447e-05
4.9248e-05
4.58582e-05
4.61362e-05
4.63853e-05
4.62045e-05
4.60112e-05
4.62402e-05
4.64113e-05
4.95468e-05
4.90454e-05
4.6007e-05
4.62099e-05
4.64184e-05
4.93905e-05
4.99783e-05
4.98294e-05
4.66347e-05
4.62786e-05
4.69649e-05
4.70914e-05
4.92705e-05
5.05851e-05
4.66418e-05
4.62276e-05
4.69574e-05
4.7105e-05
4.64083e-05
4.70544e-05
4.65682e-05
4.907e-05
5.06775e-05
4.64154e-05
4.70716e-05
4.65642e-05
4.98024e-05
4.96747e-05
5.02487e-05
4.6932e-05
4.73778e-05
4.70955e-05
4.74304e-05
5.07757e-05
4.99081e-05
4.69231e-05
4.73909e-05
4.70927e-05
4.74635e-05
4.69585e-05
4.74567e-05
4.77786e-05
5.08231e-05
5.00251e-05
4.69442e-05
4.74901e-05
4.77812e-05
5.0787e-05
5.09967e-05
5.14572e-05
4.76283e-05
4.73795e-05
4.83515e-05
4.78066e-05
4.98368e-05
5.12158e-05
4.76356e-05
4.74205e-05
4.8359e-05
4.75256e-05
4.77886e-05
4.77603e-05
4.78025e-05
4.99941e-05
5.03477e-05
4.77958e-05
4.7508e-05
4.78136e-05
5.06245e-05
5.08137e-05
4.94096e-05
4.82049e-05
4.83064e-05
4.77052e-05
4.84702e-05
5.16184e-05
5.0695e-05
4.82063e-05
4.77722e-05
4.76822e-05
4.88378e-05
4.79065e-05
4.84882e-05
4.84443e-05
5.05363e-05
5.2326e-05
4.79107e-05
4.88842e-05
4.84049e-05
5.10758e-05
5.02441e-05
5.37606e-05
4.79051e-05
4.83069e-05
4.9697e-05
4.85889e-05
5.04612e-05
5.19598e-05
4.78864e-05
4.91393e-05
4.97857e-05
4.91081e-05
4.84414e-05
4.85927e-05
4.83649e-05
5.26744e-05
5.10347e-05
4.84126e-05
4.91365e-05
4.84096e-05
5.06036e-05
5.34833e-05
4.954e-05
4.96829e-05
4.92961e-05
4.85899e-05
4.97278e-05
5.26843e-05
5.20424e-05
4.97659e-05
4.86579e-05
4.84953e-05
4.828e-05
4.84416e-05
4.96499e-05
5.00795e-05
5.0324e-05
5.02668e-05
4.85202e-05
4.82352e-05
4.99313e-05
5.37562e-05
4.95747e-05
5.31988e-05
4.85346e-05
4.9347e-05
4.96189e-05
4.86127e-05
5.13307e-05
4.98736e-05
4.84311e-05
4.87628e-05
4.97561e-05
5.08772e-05
5.04698e-05
4.87244e-05
5.02366e-05
5.17738e-05
5.51651e-05
5.03024e-05
5.1014e-05
5.02579e-05
5.18806e-05
5.34473e-05
5.23315e-05
5.00922e-05
4.88131e-05
5.02698e-05
5.1156e-05
5.06957e-05
5.50575e-05
5.02954e-05
5.07503e-05
5.03097e-05
4.86473e-05
4.94911e-05
5.10147e-05
4.8451e-05
5.42151e-05
4.84439e-05
4.97053e-05
4.85633e-05
4.8488e-05
4.91419e-05
5.22394e-05
5.26576e-05
5.02048e-05
5.12401e-05
5.02634e-05
5.02086e-05
5.50343e-05
5.12518e-05
5.00865e-05
4.86253e-05
5.00831e-05
5.12221e-05
4.85773e-05
5.01819e-05
5.15085e-05
4.85447e-05
5.60237e-05
4.8564e-05
5.11913e-05
5.13225e-05
5.57293e-05
5.29087e-05
5.31949e-05
5.04447e-05
4.98675e-05
5.07991e-05
4.99434e-05
5.10493e-05
5.2474e-05
5.03627e-05
5.19086e-05
5.09754e-05
5.13496e-05
5.19637e-05
5.00587e-05
5.1471e-05
5.63154e-05
5.20286e-05
5.19472e-05
5.14789e-05
5.16941e-05
5.27387e-05
5.31592e-05
5.27048e-05
5.08055e-05
5.0383e-05
5.07588e-05
5.13001e-05
5.29799e-05
5.38073e-05
5.09628e-05
5.05145e-05
5.06982e-05
4.99646e-05
5.07846e-05
5.12433e-05
5.00396e-05
5.13778e-05
5.17849e-05
5.09533e-05
4.99335e-05
4.99706e-05
5.13622e-05
5.27173e-05
5.3279e-05
5.0757e-05
5.1308e-05
5.10308e-05
5.1211e-05
5.3743e-05
5.32042e-05
5.06765e-05
5.01547e-05
5.09321e-05
5.15212e-05
5.00635e-05
5.11617e-05
5.11169e-05
5.24458e-05
5.42541e-05
4.99883e-05
5.14947e-05
5.10933e-05
5.39128e-05
5.34698e-05
5.39838e-05
5.12151e-05
5.12142e-05
5.17113e-05
5.15325e-05
5.32408e-05
5.37809e-05
5.12097e-05
5.16165e-05
5.17547e-05
5.15372e-05
5.15584e-05
5.15917e-05
5.19992e-05
5.42373e-05
5.33397e-05
5.15804e-05
5.15713e-05
5.20276e-05
5.43132e-05
5.40425e-05
5.39264e-05
5.18207e-05
5.16627e-05
5.18952e-05
5.17743e-05
5.38533e-05
5.37607e-05
5.1836e-05
5.15194e-05
5.1873e-05
5.16821e-05
5.19801e-05
5.17829e-05
5.16311e-05
5.33441e-05
5.39062e-05
5.19992e-05
5.16881e-05
5.16134e-05
5.33081e-05
5.39126e-05
5.36725e-05
5.18808e-05
5.17731e-05
5.17848e-05
5.1833e-05
5.37666e-05
5.38658e-05
5.18585e-05
5.18715e-05
5.18024e-05
5.20944e-05
5.15921e-05
5.17909e-05
5.17665e-05
5.40767e-05
5.41888e-05
5.15813e-05
5.2083e-05
5.18021e-05
5.40655e-05
5.36851e-05
5.39959e-05
5.17819e-05
5.19087e-05
5.19661e-05
5.20909e-05
5.39492e-05
5.40911e-05
5.18026e-05
5.20908e-05
5.19779e-05
5.20092e-05
5.20079e-05
5.21298e-05
5.22689e-05
5.41696e-05
5.387e-05
5.20459e-05
5.20423e-05
5.22731e-05
5.42959e-05
5.40958e-05
5.4279e-05
5.20803e-05
5.21273e-05
5.22992e-05
5.21974e-05
5.41104e-05
5.41111e-05
5.20747e-05
5.19984e-05
5.2284e-05
5.20753e-05
5.22596e-05
5.21958e-05
5.2128e-05
5.38766e-05
5.40279e-05
5.22589e-05
5.20795e-05
5.21133e-05
5.38979e-05
5.43139e-05
5.43613e-05
5.2339e-05
5.2235e-05
5.24264e-05
5.24004e-05
5.41533e-05
5.43529e-05
5.23285e-05
5.21781e-05
5.24285e-05
5.24264e-05
5.21203e-05
5.23802e-05
5.2269e-05
5.41245e-05
5.43991e-05
5.21069e-05
5.24057e-05
5.22727e-05
5.42715e-05
5.43863e-05
5.44319e-05
5.24566e-05
5.24585e-05
5.25411e-05
5.25879e-05
5.44073e-05
5.45026e-05
5.24596e-05
5.24845e-05
5.2541e-05
5.25794e-05
5.23924e-05
5.25944e-05
5.26382e-05
5.44434e-05
5.44835e-05
5.23959e-05
5.25878e-05
5.26384e-05
5.45854e-05
5.44664e-05
5.45432e-05
5.2573e-05
5.26136e-05
5.26631e-05
5.26416e-05
5.45247e-05
5.44965e-05
5.25722e-05
5.25975e-05
5.26628e-05
5.26508e-05
5.26676e-05
5.26505e-05
5.26597e-05
5.45004e-05
5.45212e-05
5.2667e-05
5.26601e-05
5.26589e-05
5.44732e-05
5.45654e-05
5.45801e-05
5.26836e-05
5.26572e-05
5.27244e-05
5.27575e-05
5.45148e-05
5.46365e-05
5.26842e-05
5.26712e-05
5.27241e-05
5.27242e-05
5.26544e-05
5.27534e-05
5.27238e-05
5.45443e-05
5.45789e-05
5.2654e-05
5.27209e-05
5.27239e-05
5.46247e-05
5.46128e-05
5.46579e-05
5.27508e-05
5.27839e-05
5.28129e-05
5.2782e-05
5.46673e-05
5.45655e-05
5.27482e-05
5.27445e-05
5.28131e-05
5.28126e-05
5.27799e-05
5.27868e-05
5.28018e-05
5.46076e-05
5.46535e-05
5.27786e-05
5.28183e-05
5.28008e-05
5.45848e-05
5.46626e-05
5.45662e-05
5.28112e-05
5.27749e-05
5.27924e-05
5.28211e-05
5.45715e-05
5.46967e-05
5.28123e-05
5.28218e-05
5.27968e-05
5.28203e-05
5.2789e-05
5.2817e-05
5.2819e-05
5.4669e-05
5.46237e-05
5.27903e-05
5.28208e-05
5.28261e-05
5.47054e-05
5.4615e-05
5.48811e-05
5.28055e-05
5.2875e-05
5.29635e-05
5.29195e-05
5.47574e-05
5.473e-05
5.28087e-05
5.28272e-05
5.29613e-05
5.29321e-05
5.28828e-05
5.2926e-05
5.29257e-05
5.4654e-05
5.47943e-05
5.28869e-05
5.29367e-05
5.29234e-05
5.47126e-05
5.48908e-05
5.44762e-05
5.29651e-05
5.2917e-05
5.28341e-05
5.28764e-05
5.47326e-05
5.46436e-05
5.29635e-05
5.29379e-05
5.28369e-05
5.2871e-05
5.29132e-05
5.28724e-05
5.28745e-05
5.48115e-05
5.45833e-05
5.29111e-05
5.28696e-05
5.28766e-05
5.46563e-05
5.44783e-05
5.48954e-05
5.28096e-05
5.28685e-05
5.29192e-05
5.28943e-05
5.46551e-05
5.47437e-05
5.28115e-05
5.28522e-05
5.29186e-05
5.29188e-05
5.28751e-05
5.29082e-05
5.29228e-05
5.45887e-05
5.48389e-05
5.28772e-05
5.2933e-05
5.29234e-05
5.47506e-05
5.49834e-05
5.46191e-05
5.30003e-05
5.29436e-05
5.29729e-05
5.29649e-05
5.47984e-05
5.47459e-05
5.30004e-05
5.29672e-05
5.29714e-05
5.29235e-05
5.29421e-05
5.29619e-05
5.29402e-05
5.48933e-05
5.45775e-05
5.29428e-05
5.29188e-05
5.29401e-05
5.47102e-05
5.45562e-05
5.45656e-05
5.28719e-05
5.29302e-05
5.27898e-05
5.28103e-05
5.47201e-05
5.4541e-05
5.28691e-05
5.28574e-05
5.27912e-05
5.28401e-05
5.29173e-05
5.28189e-05
5.28491e-05
5.45551e-05
5.46981e-05
5.29153e-05
5.28483e-05
5.28492e-05
5.46214e-05
5.4682e-05
5.47404e-05
5.28241e-05
5.28153e-05
5.2895e-05
5.28826e-05
5.46027e-05
5.47452e-05
5.28296e-05
5.2879e-05
5.28968e-05
5.28639e-05
5.28482e-05
5.28827e-05
5.28479e-05
5.47689e-05
5.46173e-05
5.2849e-05
5.2863e-05
5.28476e-05
5.46517e-05
5.47445e-05
5.46563e-05
5.28954e-05
5.28909e-05
5.28665e-05
5.28637e-05
5.47605e-05
5.46291e-05
5.28944e-05
5.28426e-05
5.28616e-05
5.28433e-05
5.28551e-05
5.28621e-05
5.28756e-05
5.46195e-05
5.4702e-05
5.28522e-05
5.28483e-05
5.28769e-05
5.47489e-05
5.46435e-05
5.42758e-05
5.28268e-05
5.28145e-05
5.2629e-05
5.26563e-05
5.46091e-05
5.4348e-05
5.28285e-05
5.28384e-05
5.26331e-05
5.2651e-05
5.28627e-05
5.26632e-05
5.26401e-05
5.47129e-05
5.42978e-05
5.28668e-05
5.26528e-05
5.2637e-05
5.42659e-05
5.43199e-05
5.49217e-05
5.26378e-05
5.26661e-05
5.28508e-05
5.28207e-05
5.44094e-05
5.48334e-05
5.26401e-05
5.26467e-05
5.28437e-05
5.28053e-05
5.26391e-05
5.28187e-05
5.28053e-05
5.43163e-05
5.48257e-05
5.26319e-05
5.28021e-05
5.27974e-05
5.48222e-05
5.49192e-05
5.4088e-05
5.28521e-05
5.28178e-05
5.2511e-05
5.25336e-05
5.48178e-05
5.41745e-05
5.28465e-05
5.2819e-05
5.25211e-05
5.25865e-05
5.28146e-05
5.25345e-05
5.2586e-05
5.48387e-05
5.42304e-05
5.28127e-05
5.26016e-05
5.26078e-05
5.42564e-05
5.40894e-05
5.41248e-05
5.24436e-05
5.24836e-05
5.23091e-05
5.23286e-05
5.41904e-05
5.41183e-05
5.24495e-05
5.24897e-05
5.23064e-05
5.22738e-05
5.25081e-05
5.23381e-05
5.23041e-05
5.42228e-05
5.40025e-05
5.25195e-05
5.22746e-05
5.22906e-05
5.40272e-05
5.40202e-05
5.14099e-05
5.14024e-05
5.39743e-05
5.14062e-05
5.13561e-05
4.18333e-05
4.1812e-05
4.18162e-05
5.13691e-05
5.38888e-05
5.13569e-05
6.48676e-05
7.13759e-05
6.47546e-05
7.14026e-05
6.9545e-05
6.95764e-05
6.48682e-05
7.1381e-05
6.47538e-05
7.14092e-05
2.11987e-05
2.11974e-05
2.12009e-05
2.17662e-05
2.17823e-05
2.17785e-05
2.17752e-05
5.36097e-05
6.02598e-05
2.92565e-05
3.71392e-05
5.34105e-05
6.04074e-05
2.95039e-05
6.95436e-05
6.95757e-05
5.36045e-05
2.92581e-05
6.02464e-05
3.71234e-05
5.34061e-05
2.95039e-05
6.03987e-05
6.69805e-05
6.69892e-05
4.23443e-05
6.70248e-05
6.70338e-05
6.50661e-05
7.14485e-05
6.49888e-05
7.14974e-05
6.96012e-05
6.96195e-05
6.50717e-05
7.14549e-05
6.49941e-05
7.15033e-05
2.19752e-05
2.1973e-05
2.19681e-05
2.25472e-05
2.25425e-05
2.25461e-05
2.25567e-05
5.40787e-05
6.05947e-05
3.0249e-05
3.80322e-05
5.38906e-05
6.06626e-05
3.04912e-05
6.96015e-05
6.96187e-05
5.40821e-05
3.02483e-05
6.06047e-05
3.80426e-05
5.38903e-05
3.04946e-05
6.0671e-05
6.71172e-05
6.7132e-05
4.30595e-05
6.72341e-05
6.72463e-05
6.53232e-05
7.15536e-05
6.5207e-05
7.15816e-05
6.96648e-05
6.96953e-05
6.53259e-05
7.15588e-05
6.52071e-05
7.15877e-05
2.2738e-05
2.27403e-05
2.27537e-05
2.3363e-05
2.33396e-05
2.33593e-05
2.33402e-05
5.45193e-05
6.08194e-05
3.1212e-05
3.88963e-05
5.43337e-05
6.09699e-05
3.14548e-05
6.9665e-05
6.9698e-05
5.45152e-05
3.12134e-05
6.07976e-05
3.89087e-05
5.43301e-05
3.14556e-05
6.09967e-05
6.73165e-05
6.73242e-05
4.37114e-05
6.73401e-05
6.73475e-05
6.5495e-05
7.16155e-05
6.54335e-05
7.16569e-05
6.97202e-05
6.97492e-05
6.5504e-05
7.16228e-05
6.54484e-05
7.1662e-05
2.35399e-05
2.35615e-05
2.354e-05
2.4139e-05
2.41517e-05
2.41381e-05
2.41443e-05
5.49448e-05
6.11107e-05
3.21808e-05
3.97524e-05
5.47776e-05
6.12036e-05
3.24199e-05
6.97155e-05
6.97336e-05
5.49547e-05
3.21981e-05
6.11555e-05
3.97513e-05
5.47907e-05
3.24335e-05
6.11746e-05
6.74574e-05
6.74768e-05
4.43842e-05
6.74913e-05
6.75124e-05
6.57548e-05
7.17203e-05
6.56389e-05
7.17506e-05
6.97871e-05
6.98095e-05
6.57485e-05
7.17237e-05
6.5627e-05
7.17586e-05
2.43593e-05
2.43411e-05
2.43506e-05
2.49474e-05
2.49597e-05
2.49664e-05
2.49824e-05
5.53745e-05
6.14085e-05
3.31309e-05
4.06087e-05
5.51826e-05
6.15334e-05
3.33694e-05
6.97897e-05
6.98168e-05
5.53571e-05
3.31206e-05
6.13564e-05
4.05821e-05
5.51677e-05
3.33592e-05
6.15298e-05
6.76901e-05
6.76931e-05
4.5125e-05
6.78035e-05
6.78113e-05
6.58887e-05
7.18005e-05
6.583e-05
7.18483e-05
6.98333e-05
6.98789e-05
6.59049e-05
7.18083e-05
6.58495e-05
7.18527e-05
2.51525e-05
2.51672e-05
2.5183e-05
2.57809e-05
2.57544e-05
2.57588e-05
2.57637e-05
5.57428e-05
6.15632e-05
3.40678e-05
4.12971e-05
5.56176e-05
6.16227e-05
3.42876e-05
6.98336e-05
6.98701e-05
5.57606e-05
3.40767e-05
6.16277e-05
4.13402e-05
5.56269e-05
3.43016e-05
6.16544e-05
6.77977e-05
6.7815e-05
4.56094e-05
6.77427e-05
6.77584e-05
6.6152e-05
7.18948e-05
6.60467e-05
7.19224e-05
6.99275e-05
6.9947e-05
6.6145e-05
7.18994e-05
6.60444e-05
7.19273e-05
2.59681e-05
2.59628e-05
2.5963e-05
2.65815e-05
2.66057e-05
2.6596e-05
2.65922e-05
5.61234e-05
6.1898e-05
3.49539e-05
4.21701e-05
5.59375e-05
6.20268e-05
3.51872e-05
6.99256e-05
6.99498e-05
5.61109e-05
3.4955e-05
6.18385e-05
4.2117e-05
5.59356e-05
3.51817e-05
6.19811e-05
6.79107e-05
6.79176e-05
4.62698e-05
6.80593e-05
6.80658e-05
6.62868e-05
7.19779e-05
6.62221e-05
7.20291e-05
6.99655e-05
6.99975e-05
6.6293e-05
7.19839e-05
6.62108e-05
7.20364e-05
2.68032e-05
2.68046e-05
2.68015e-05
2.74043e-05
2.73899e-05
2.74444e-05
2.74028e-05
5.65172e-05
6.21016e-05
3.58671e-05
4.28459e-05
5.63817e-05
6.21511e-05
3.608e-05
6.99795e-05
7.00103e-05
5.65148e-05
3.5863e-05
6.21012e-05
4.29084e-05
5.63656e-05
3.60839e-05
6.22277e-05
6.81513e-05
6.81583e-05
4.68613e-05
6.81474e-05
6.81589e-05
6.65323e-05
7.20675e-05
6.64468e-05
7.20815e-05
7.00434e-05
7.00748e-05
6.65499e-05
7.20748e-05
6.64873e-05
7.20856e-05
2.75962e-05
2.76563e-05
2.7607e-05
2.81844e-05
2.81948e-05
2.81859e-05
2.82063e-05
5.68473e-05
6.22977e-05
3.67155e-05
4.3554e-05
5.66911e-05
6.24275e-05
3.69291e-05
7.00333e-05
7.00451e-05
5.68872e-05
3.67602e-05
6.24277e-05
4.36104e-05
5.67345e-05
3.69718e-05
6.24281e-05
6.82188e-05
6.82476e-05
4.73508e-05
6.82907e-05
6.83102e-05
6.65814e-05
7.21432e-05
6.65362e-05
7.22195e-05
7.01042e-05
7.0145e-05
6.65448e-05
7.21444e-05
6.65114e-05
7.22245e-05
2.83808e-05
2.83502e-05
2.83892e-05
2.90109e-05
2.89867e-05
2.89702e-05
2.89897e-05
5.71369e-05
6.24795e-05
3.75291e-05
4.41742e-05
5.70462e-05
6.24869e-05
3.772e-05
7.00822e-05
7.0152e-05
5.70806e-05
3.75106e-05
6.23323e-05
4.40915e-05
5.70157e-05
3.76897e-05
6.24459e-05
6.83184e-05
6.83182e-05
4.78646e-05
6.83325e-05
6.83282e-05
6.6925e-05
7.22694e-05
6.67937e-05
7.22782e-05
7.01991e-05
7.02167e-05
6.6954e-05
7.228e-05
6.68325e-05
7.22869e-05
2.92086e-05
2.91929e-05
2.92093e-05
2.97993e-05
2.98036e-05
2.97644e-05
2.98048e-05
5.75388e-05
6.28108e-05
3.83373e-05
4.4972e-05
5.73138e-05
6.29636e-05
3.85519e-05
7.02032e-05
7.02134e-05
5.75781e-05
3.83235e-05
6.2869e-05
4.49324e-05
5.73143e-05
3.8543e-05
6.29232e-05
6.85768e-05
6.85953e-05
4.85089e-05
6.8711e-05
6.8734e-05
6.69318e-05
7.23029e-05
6.69396e-05
7.23541e-05
7.02185e-05
7.02528e-05
6.68807e-05
7.23026e-05
6.69071e-05
7.23571e-05
2.99774e-05
2.99531e-05
2.99776e-05
3.05447e-05
3.05663e-05
3.06207e-05
3.05552e-05
5.77656e-05
6.28897e-05
3.91385e-05
4.54558e-05
5.77679e-05
6.28511e-05
3.93125e-05
7.02178e-05
7.0278e-05
5.77111e-05
3.9129e-05
6.2771e-05
4.54795e-05
5.7736e-05
3.93034e-05
6.28303e-05
6.85389e-05
6.85422e-05
4.88066e-05
6.84016e-05
6.84012e-05
6.71995e-05
7.24092e-05
6.71074e-05
7.24368e-05
7.03227e-05
7.03369e-05
6.72623e-05
7.2423e-05
6.71978e-05
7.24439e-05
3.07748e-05
3.08246e-05
3.0771e-05
3.12778e-05
3.12372e-05
3.12399e-05
3.13254e-05
5.82223e-05
6.32287e-05
3.98347e-05
4.61441e-05
5.78381e-05
6.33493e-05
4.00269e-05
7.03239e-05
7.03038e-05
5.83125e-05
3.9868e-05
6.3433e-05
4.61983e-05
5.793e-05
4.00674e-05
6.34177e-05
6.90329e-05
6.90733e-05
4.95894e-05
6.92563e-05
6.9298e-05
6.72195e-05
7.25374e-05
6.71586e-05
7.25682e-05
7.03372e-05
7.04133e-05
6.71458e-05
7.2531e-05
6.70894e-05
7.25719e-05
3.13791e-05
3.13834e-05
3.14541e-05
3.20866e-05
3.20629e-05
3.20612e-05
3.19124e-05
5.81348e-05
6.29707e-05
4.05457e-05
4.64151e-05
5.83497e-05
6.29028e-05
4.06782e-05
7.03185e-05
7.04537e-05
5.80537e-05
4.05504e-05
6.27504e-05
4.63449e-05
5.82888e-05
4.06609e-05
6.28124e-05
6.82727e-05
6.82605e-05
4.92023e-05
6.78959e-05
6.78853e-05
6.74627e-05
7.24561e-05
6.75558e-05
7.24444e-05
7.05106e-05
7.04615e-05
6.74694e-05
7.247e-05
6.76141e-05
7.24466e-05
3.22969e-05
3.22838e-05
3.21442e-05
3.26096e-05
3.27727e-05
3.28033e-05
3.28412e-05
5.89532e-05
6.39351e-05
4.11649e-05
4.74815e-05
5.82509e-05
6.41478e-05
4.14017e-05
7.05148e-05
7.04222e-05
5.89692e-05
4.11633e-05
6.40295e-05
4.7485e-05
5.83535e-05
4.13999e-05
6.40855e-05
6.94346e-05
6.9475e-05
5.08617e-05
7.00347e-05
7.00538e-05
6.75757e-05
7.28419e-05
6.71507e-05
7.29591e-05
7.03834e-05
7.05138e-05
6.77403e-05
7.28459e-05
6.71196e-05
7.29848e-05
3.28654e-05
3.29518e-05
3.30446e-05
3.36238e-05
3.33885e-05
3.32323e-05
3.3467e-05
5.85724e-05
6.30456e-05
4.1974e-05
4.74136e-05
5.9062e-05
6.27531e-05
4.20309e-05
7.04043e-05
7.05566e-05
5.87045e-05
4.20041e-05
6.32278e-05
4.74446e-05
5.90071e-05
4.20795e-05
6.31532e-05
6.88459e-05
6.88442e-05
5.042e-05
6.83253e-05
6.83762e-05
6.78083e-05
7.24485e-05
6.82576e-05
7.22764e-05
7.06949e-05
7.06152e-05
6.73008e-05
7.24392e-05
6.82577e-05
7.22351e-05
3.36329e-05
3.33852e-05
3.35901e-05
3.38188e-05
3.41297e-05
3.42682e-05
3.40806e-05
5.94975e-05
6.43338e-05
4.23545e-05
4.84976e-05
5.86529e-05
6.48251e-05
4.26045e-05
7.06356e-05
7.06152e-05
5.90246e-05
4.22746e-05
6.35443e-05
4.80098e-05
5.8717e-05
4.24558e-05
6.3572e-05
6.94413e-05
6.94193e-05
5.11645e-05
6.99211e-05
6.97371e-05
6.72191e-05
7.29776e-05
6.68068e-05
7.33659e-05
7.04558e-05
7.06265e-05
6.82365e-05
7.30538e-05
6.66646e-05
7.3502e-05
3.42063e-05
3.45617e-05
3.42394e-05
3.504e-05
3.46982e-05
3.48886e-05
3.44832e-05
5.88921e-05
6.32485e-05
4.3158e-05
4.83318e-05
5.95537e-05
6.25548e-05
4.31814e-05
7.06787e-05
7.06859e-05
5.97703e-05
4.31774e-05
6.45964e-05
4.93288e-05
5.93596e-05
4.34303e-05
6.53643e-05
6.90008e-05
6.89301e-05
5.06636e-05
6.82277e-05
6.85302e-05
6.89448e-05
7.28787e-05
6.89415e-05
7.24027e-05
7.092e-05
7.08118e-05
6.7727e-05
7.2822e-05
6.94355e-05
7.22244e-05
3.50036e-05
3.48648e-05
3.4648e-05
3.52518e-05
3.5503e-05
3.49114e-05
3.56158e-05
5.98243e-05
6.45078e-05
4.33524e-05
4.96293e-05
5.88198e-05
6.5762e-05
4.36553e-05
7.03446e-05
7.04284e-05
5.8902e-05
4.37145e-05
6.36006e-05
4.8209e-05
5.98138e-05
4.36574e-05
6.14131e-05
6.84905e-05
6.88057e-05
5.18602e-05
6.95657e-05
6.91076e-05
6.69245e-05
7.26568e-05
6.72979e-05
7.31409e-05
7.03706e-05
7.05013e-05
6.75236e-05
7.2729e-05
6.59785e-05
7.34115e-05
3.55154e-05
3.51049e-05
3.59541e-05
3.57658e-05
3.55658e-05
3.64367e-05
3.62675e-05
5.99525e-05
6.41753e-05
4.43741e-05
4.88831e-05
6.04042e-05
6.23884e-05
4.4384e-05
7.10303e-05
7.1234e-05
6.01615e-05
4.36281e-05
6.2992e-05
5.00864e-05
5.84121e-05
4.39099e-05
6.69363e-05
7.19053e-05
7.11956e-05
5.42007e-05
7.19069e-05
7.19024e-05
6.86587e-05
7.33552e-05
6.79325e-05
7.31469e-05
7.11119e-05
7.12756e-05
6.92786e-05
7.34669e-05
7.00315e-05
7.2926e-05
3.56781e-05
3.64884e-05
3.62129e-05
3.66848e-05
3.68259e-05
3.62101e-05
3.5935e-05
5.93725e-05
6.28786e-05
4.43572e-05
4.96533e-05
5.92575e-05
6.5069e-05
4.44128e-05
7.04236e-05
7.0153e-05
6.06122e-05
4.52686e-05
6.74079e-05
5.01865e-05
6.19943e-05
4.52431e-05
6.28964e-05
6.77848e-05
6.87111e-05
4.93039e-05
6.56694e-05
6.59511e-05
6.84169e-05
7.29805e-05
6.88713e-05
7.30784e-05
7.08654e-05
7.06095e-05
6.64419e-05
7.27234e-05
6.63256e-05
7.31602e-05
3.70753e-05
3.61996e-05
3.59484e-05
3.69747e-05
3.71782e-05
3.69807e-05
3.70493e-05
6.02659e-05
6.61413e-05
4.50962e-05
5.10046e-05
5.99221e-05
6.48955e-05
4.52676e-05
7.09333e-05
7.14336e-05
5.73891e-05
4.43634e-05
5.9906e-05
4.87412e-05
5.71874e-05
4.43314e-05
6.30296e-05
6.80477e-05
6.67841e-05
5.28083e-05
7.10015e-05
7.02769e-05
6.79965e-05
7.32523e-05
6.7944e-05
7.32812e-05
7.07014e-05
7.09825e-05
6.99481e-05
7.35611e-05
6.93866e-05
7.3413e-05
3.71576e-05
3.75911e-05
3.76324e-05
3.76487e-05
3.7221e-05
3.8043e-05
3.81446e-05
6.05836e-05
6.33724e-05
4.55584e-05
4.9868e-05
6.05423e-05
6.34641e-05
4.55969e-05
7.13048e-05
7.07298e-05
6.2958e-05
4.57302e-05
6.82539e-05
5.21002e-05
6.20448e-05
4.63869e-05
6.79467e-05
7.30782e-05
7.35855e-05
5.54071e-05
7.11636e-05
7.20831e-05
6.86239e-05
7.32189e-05
6.85284e-05
7.31814e-05
7.1171e-05
7.11536e-05
6.75326e-05
7.30037e-05
6.84059e-05
7.29854e-05
3.73746e-05
3.79577e-05
3.80956e-05
3.79672e-05
3.80893e-05
3.77428e-05
3.77868e-05
6.02506e-05
6.48237e-05
4.58539e-05
5.09329e-05
6.03787e-05
6.5095e-05
4.5968e-05
7.04617e-05
7.08164e-05
5.90361e-05
4.65111e-05
6.30745e-05
5.00592e-05
6.06139e-05
4.61544e-05
6.21688e-05
6.82047e-05
6.81423e-05
5.1261e-05
6.77522e-05
6.73696e-05
6.82769e-05
7.32096e-05
6.84221e-05
7.33139e-05
7.10402e-05
7.10524e-05
6.83635e-05
7.32785e-05
6.76269e-05
7.34398e-05
3.82418e-05
3.77601e-05
3.7775e-05
3.82678e-05
3.8479e-05
3.83527e-05
3.80621e-05
6.01588e-05
6.47503e-05
4.61362e-05
5.12113e-05
6.01082e-05
6.44772e-05
4.61585e-05
7.12729e-05
7.13234e-05
6.00224e-05
4.56364e-05
6.39641e-05
5.06206e-05
5.88201e-05
4.56689e-05
6.52068e-05
6.9021e-05
6.88415e-05
5.25622e-05
6.97689e-05
6.98567e-05
6.85995e-05
7.34666e-05
6.83331e-05
7.35165e-05
7.11599e-05
7.12159e-05
6.88723e-05
7.35124e-05
6.88883e-05
7.34975e-05
3.85392e-05
3.85616e-05
3.84097e-05
3.89821e-05
3.88998e-05
3.89698e-05
3.91459e-05
6.08259e-05
6.45132e-05
4.63942e-05
5.12351e-05
6.05075e-05
6.4904e-05
4.65484e-05
7.11498e-05
7.11055e-05
6.12155e-05
4.64807e-05
6.55742e-05
5.1631e-05
6.11401e-05
4.67395e-05
6.50519e-05
7.063e-05
7.08686e-05
5.45311e-05
7.08198e-05
7.09548e-05
6.88311e-05
7.35175e-05
6.8814e-05
7.3494e-05
7.12135e-05
7.11978e-05
6.86132e-05
7.34859e-05
6.86271e-05
7.34887e-05
3.90435e-05
3.9044e-05
3.92678e-05
3.94381e-05
3.93633e-05
3.93081e-05
3.93862e-05
6.10284e-05
6.51782e-05
4.70256e-05
5.17762e-05
6.10787e-05
6.50752e-05
4.71211e-05
7.11607e-05
7.12537e-05
6.07375e-05
4.70474e-05
6.45708e-05
5.15575e-05
6.08862e-05
4.7059e-05
6.4616e-05
7.02436e-05
7.01608e-05
5.36373e-05
6.97414e-05
6.96537e-05
6.8611e-05
7.34451e-05
6.86816e-05
7.34422e-05
7.12072e-05
7.12534e-05
6.87467e-05
7.3486e-05
6.87179e-05
7.34795e-05
3.94296e-05
3.9439e-05
3.9396e-05
3.9623e-05
3.96183e-05
3.97694e-05
3.95766e-05
6.05517e-05
6.47159e-05
4.7178e-05
5.17599e-05
6.0642e-05
6.46776e-05
4.71711e-05
7.12964e-05
7.12905e-05
6.07343e-05
4.71401e-05
6.50166e-05
5.19808e-05
6.06593e-05
4.71981e-05
6.51334e-05
6.93262e-05
6.93381e-05
5.34504e-05
6.97266e-05
6.9824e-05
6.86444e-05
7.34989e-05
6.85663e-05
7.35698e-05
7.13028e-05
7.13213e-05
6.86625e-05
7.34975e-05
6.86947e-05
7.35514e-05
3.97044e-05
3.98455e-05
3.9728e-05
3.99016e-05
3.99833e-05
3.99913e-05
4.00872e-05
6.10169e-05
6.49637e-05
4.72518e-05
5.19838e-05
6.07805e-05
6.51017e-05
4.73723e-05
7.12528e-05
7.12601e-05
6.10302e-05
4.74238e-05
6.50935e-05
5.20787e-05
6.0955e-05
4.74915e-05
6.50166e-05
7.04603e-05
7.05131e-05
5.44351e-05
7.05869e-05
7.06064e-05
6.87826e-05
7.36278e-05
6.87703e-05
7.36379e-05
7.13335e-05
7.1352e-05
6.87313e-05
7.36234e-05
6.86723e-05
7.36447e-05
4.00688e-05
4.00294e-05
4.01623e-05
4.03025e-05
4.02769e-05
4.02023e-05
4.02702e-05
6.1017e-05
6.50891e-05
4.7659e-05
5.21835e-05
6.10921e-05
6.49838e-05
4.77063e-05
7.13054e-05
7.13559e-05
6.09118e-05
4.76172e-05
6.48874e-05
5.20311e-05
6.09954e-05
4.76333e-05
6.48514e-05
7.01247e-05
7.01057e-05
5.39878e-05
6.98395e-05
6.98266e-05
6.87522e-05
7.36504e-05
6.87565e-05
7.36774e-05
7.13967e-05
7.14352e-05
6.87738e-05
7.36635e-05
6.87599e-05
7.36856e-05
4.03428e-05
4.02877e-05
4.02924e-05
4.06042e-05
4.05654e-05
4.05646e-05
4.04866e-05
6.08565e-05
6.4892e-05
4.77479e-05
5.22556e-05
6.08478e-05
6.49685e-05
4.77674e-05
7.14107e-05
7.14407e-05
6.08638e-05
4.7692e-05
6.48975e-05
5.22461e-05
6.08161e-05
4.77362e-05
6.50256e-05
6.97808e-05
6.97997e-05
5.40036e-05
7.00195e-05
7.00432e-05
6.88429e-05
7.3714e-05
6.88114e-05
7.37246e-05
7.14635e-05
7.1477e-05
6.88441e-05
7.37162e-05
6.8829e-05
7.37276e-05
4.06482e-05
4.0655e-05
4.05909e-05
4.08649e-05
4.08837e-05
4.08857e-05
4.08929e-05
6.11322e-05
6.51235e-05
4.79466e-05
5.25039e-05
6.10391e-05
6.51625e-05
4.80191e-05
7.14594e-05
7.14708e-05
6.11352e-05
4.79569e-05
6.51497e-05
5.25211e-05
6.10624e-05
4.80306e-05
6.51605e-05
7.0242e-05
7.02568e-05
5.44932e-05
7.03029e-05
7.03131e-05
6.88501e-05
7.37456e-05
6.88454e-05
7.37714e-05
7.1491e-05
7.15074e-05
6.88472e-05
7.37514e-05
6.88411e-05
7.37767e-05
4.09519e-05
4.09511e-05
4.09713e-05
4.11093e-05
4.11099e-05
4.11149e-05
4.11249e-05
6.11644e-05
6.51717e-05
4.82015e-05
5.26396e-05
6.11614e-05
6.51577e-05
4.82393e-05
7.14861e-05
7.15081e-05
6.1153e-05
4.82014e-05
6.51453e-05
5.26273e-05
6.11513e-05
4.82357e-05
6.51426e-05
7.03162e-05
7.03236e-05
5.45509e-05
7.0239e-05
7.02485e-05
6.8848e-05
7.37859e-05
6.88478e-05
7.37936e-05
7.1529e-05