/*--------------------------------*- C++ -*----------------------------------*\
| =========                 |                                                 |
| \\      /  F ield         | OpenFOAM: The Open Source CFD Toolbox           |
|  \\    /   O peration     | Version:  v2012                                 |
|   \\  /    A nd           | Website:  www.openfoam.com                      |
|    \\/     M anipulation  |                                                 |
\*---------------------------------------------------------------------------*/
FoamFile
{
    version     2.0;
    format      ascii;
    class       volScalarField;
    location    "500";
    object      nut;
}
// * * * * * * * * * * * * * * * * * * * * * * * * * * * * * * * * * * * * * //

dimensions      [0 2 -1 0 0 0 0];


internalField   nonuniform List<scalar> 
85864
(
0.000123802
0.000140144
0.000140012
0.000137846
0.000126328
0.000143475
0.000143443
0.000140216
0.000129704
0.000146187
0.00014615
0.000142624
0.000132843
0.000149361
0.000149665
0.000144461
0.000135762
0.000152747
0.000152323
0.00014748
0.00013909
0.000154884
0.000155311
0.000149478
0.000142817
0.000158426
0.000157864
0.000151096
0.000145925
0.000161136
0.000161282
0.000154062
0.000149772
0.000163778
0.000164808
0.000155502
0.000152626
0.000165931
0.000165204
0.000157085
0.000157011
0.000169624
0.000169396
0.000160092
0.00016046
0.000171575
0.000171055
0.000160955
0.000163176
0.000174918
0.000176048
0.000165846
0.000168196
0.000174294
0.000173825
0.000161505
0.000169443
0.000182024
0.000182108
0.000168051
0.000175018
0.00017923
0.000180164
0.000169602
0.000178076
0.000185643
0.000178978
0.000171104
0.000177411
0.000182929
0.000193587
0.000168854
0.000189021
0.000191591
0.000182571
0.000162831
0.000183867
0.000188554
0.000185487
0.000197641
0.000190346
0.000182961
0.000203835
0.000167224
0.000194451
0.000203316
0.000177012
0.000152528
0.000195887
0.000190223
0.000210054
0.000205738
0.000200893
0.000194202
0.000195813
0.000175293
0.000200266
0.000199846
0.000189832
0.000167179
0.000202117
0.000198081
0.000202149
0.000186285
0.00020822
0.000202425
0.000200391
0.0001868
0.000210912
0.000202207
0.000202783
0.000178496
0.000210789
0.000202788
0.000204872
0.000186097
0.000212851
0.000204959
0.000203834
0.000186128
0.000215789
0.000204792
0.000204332
0.000182672
0.000217759
0.000206549
0.000206779
0.000185791
0.000219681
0.000208076
0.000207958
0.000187751
0.000221482
0.000208347
0.000208497
0.000186489
0.000223122
0.00020966
0.000209235
0.000188287
0.000224555
0.000209549
0.000210002
0.000187234
0.00022563
0.000210749
0.000210249
0.000189137
0.000227817
0.000211465
0.000211631
0.000188645
0.000227925
0.000211096
0.000210964
0.000188588
0.000229912
0.000212585
0.000212786
0.000189722
0.000230732
0.000212647
0.000211951
0.00018937
0.000230977
0.000212101
0.000212764
0.000189092
0.000232741
0.00021363
0.000213079
0.000189937
0.000233266
0.000213239
0.000213652
0.00019058
0.000233083
0.000212631
0.000212109
0.000187456
0.000235192
0.00021489
0.000215016
0.000192511
0.000234476
0.000212493
0.000212663
0.000188618
0.00023607
0.000213604
0.00021299
0.000189912
0.000138035
0.000138962
0.000140356
0.000140128
0.000142105
0.000142786
0.000137878
0.000140104
0.000140353
0.00013999
0.000142109
0.000142682
0.000140191
0.000142792
0.000142474
0.000137546
0.00014003
0.00014019
0.000142689
0.000142477
0.000139776
0.000139154
0.000142843
0.000142658
0.000143467
0.000145785
0.000145341
0.000140432
0.000141715
0.000142667
0.000143433
0.000145785
0.000145245
0.000143276
0.00014538
0.00014574
0.000140364
0.000141727
0.000143285
0.000145288
0.000145744
0.000142324
0.00014355
0.000144664
0.000146884
0.000146144
0.000148918
0.0001486
0.000142163
0.000144484
0.000146883
0.00014611
0.000148931
0.000149071
0.000146426
0.000148605
0.000148483
0.000142273
0.00014502
0.000146425
0.000149078
0.000148482
0.000144066
0.000144759
0.000146496
0.000149436
0.000149358
0.000151458
0.000151861
0.000144869
0.000147231
0.00014946
0.00014965
0.000151463
0.000151373
0.000149213
0.00015187
0.000151531
0.000145231
0.000146385
0.000149228
0.000151388
0.00015155
0.00014691
0.000146871
0.000148711
0.000152244
0.000152745
0.000154342
0.000154458
0.000147663
0.000148486
0.000152231
0.000152326
0.000154347
0.000154737
0.00015251
0.000154488
0.000155072
0.000146956
0.000149088
0.000152511
0.000154773
0.00015507
0.000149421
0.000149208
0.000151816
0.000155116
0.000154836
0.000157947
0.000157332
0.000148549
0.000151375
0.000155136
0.000155247
0.000157966
0.000157064
0.000155551
0.00015736
0.000157066
0.000149199
0.000150604
0.000155562
0.000157092
0.000157086
0.000150559
0.000151973
0.000152692
0.000158599
0.000158421
0.000159946
0.000160638
0.0001521
0.000153573
0.000158615
0.000157862
0.000159919
0.000160364
0.000157838
0.000160626
0.000160546
0.000151041
0.000153622
0.000157857
0.000160363
0.000160523
0.00015373
0.000153224
0.000155778
0.000160769
0.000161125
0.000163509
0.000163005
0.000153643
0.00015518
0.000160734
0.000161259
0.000163551
0.000164177
0.000161302
0.000163045
0.000163185
0.00015424
0.000156722
0.000161271
0.00016421
0.000163225
0.000155269
0.000155739
0.000156009
0.00016404
0.000163761
0.000164951
0.000165507
0.000155547
0.000156766
0.000164106
0.0001648
0.000164968
0.000164851
0.000163865
0.000165514
0.000165534
0.00015666
0.000155608
0.000163923
0.000164879
0.000165561
0.000156863
0.000156539
0.000160701
0.000165621
0.000165904
0.000169084
0.000168452
0.000156924
0.000159851
0.000165614
0.00016514
0.000169065
0.000168441
0.000166047
0.000168484
0.000168404
0.000155638
0.000159988
0.00016605
0.000168473
0.000168371
0.000159556
0.000161004
0.000161184
0.000170001
0.000169593
0.000171233
0.000171301
0.000160589
0.000161236
0.000169988
0.000169389
0.000171282
0.000170307
0.000169334
0.000171321
0.000171218
0.000160255
0.000159952
0.000169311
0.000170339
0.000171252
0.000160975
0.000161212
0.000161911
0.000171659
0.000171581
0.000172996
0.00017416
0.000161233
0.000164245
0.000171694
0.000171016
0.000172936
0.000175561
0.00017143
0.000174085
0.000173893
0.000160339
0.000166556
0.000171454
0.000175504
0.000173863
0.000164689
0.000161847
0.000166982
0.00017314
0.000174956
0.000176484
0.000174119
0.000164392
0.000161306
0.000173117
0.000176097
0.000176591
0.00017388
0.000175457
0.000174292
0.000176044
0.00016595
0.000159858
0.000175439
0.000174001
0.000176117
0.000162561
0.000168729
0.000163162
0.000178349
0.000174158
0.000177934
0.00018025
0.000161201
0.000172134
0.000178431
0.000173727
0.000177888
0.000180332
0.000175045
0.0001799
0.000175116
0.000159852
0.000172595
0.000175118
0.000179993
0.000175094
0.0001651
0.000161055
0.000169809
0.000176726
0.000182355
0.000178062
0.00017979
0.000173055
0.000163138
0.000176657
0.000182467
0.000178041
0.000181067
0.000178029
0.00018014
0.000183501
0.000173236
0.000165446
0.000177922
0.000181473
0.000183516
0.000170702
0.000175269
0.000173156
0.000182818
0.000178904
0.000187112
0.000182431
0.000162203
0.000174667
0.000182922
0.000179756
0.000187257
0.000178138
0.000182913
0.000181945
0.000182214
0.000164368
0.000163677
0.000183048
0.000177857
0.00018241
0.000169699
0.000166314
0.000159069
0.000183631
0.000186289
0.000177952
0.00018427
0.000177239
0.000165071
0.00018359
0.00017983
0.000177608
0.000189883
0.000182961
0.000184622
0.000186066
0.000164589
0.000184871
0.000183045
0.000190372
0.000185349
0.000170715
0.000165622
0.000193838
0.000180316
0.000182264
0.000196418
0.000185928
0.00016281
0.000180169
0.00018012
0.00019278
0.00019743
0.000189175
0.000184381
0.000185881
0.000180539
0.000187561
0.000165863
0.000184077
0.000189287
0.000181242
0.000161883
0.00018938
0.000156084
0.000195859
0.000192464
0.000182634
0.00019447
0.000185662
0.000175302
0.000196744
0.000183164
0.000181488
0.000179459
0.000181032
0.000193668
0.000197653
0.000158951
0.000165242
0.000181955
0.000178915
0.000196026
0.000194528
0.000156101
0.000183358
0.000181732
0.000188486
0.000190368
0.000179839
0.000167561
0.000156494
0.000180579
0.000185498
0.000191839
0.000205149
0.000202056
0.000181049
0.000199346
0.000177434
0.000204509
0.000200344
0.000206595
0.000199883
0.000176217
0.000184881
0.000175503
0.000194152
0.000181814
0.000194612
0.000204016
0.000162582
0.000200805
0.000196285
0.000202479
0.000194849
0.000178307
0.000189994
0.000202689
0.000176572
0.000192281
0.000143926
0.000192529
0.000177534
0.000176844
0.000148611
0.000174312
0.000177791
0.000193601
0.000204883
0.000193581
0.000193535
0.000200178
0.000167371
0.000192338
0.000177947
0.000191851
0.000202901
0.000177446
0.000193221
0.00020455
0.000144959
0.000208412
0.000177207
0.000202579
0.000202816
0.000204172
0.000179386
0.00018189
0.000195029
0.000189775
0.000197892
0.000189472
0.000164983
0.000174872
0.000194348
0.000209533
0.000199595
0.000203474
0.000209371
0.000190565
0.000205534
0.000210722
0.000173391
0.000209239
0.000204774
0.000207666
0.000180567
0.00018112
0.000176367
0.000197796
0.000193049
0.000195982
0.000200517
0.000178215
0.000184692
0.000199362
0.000195047
0.000195416
0.000188803
0.000198699
0.000200138
0.00018922
0.000167319
0.000169311
0.000200343
0.000188566
0.000188608
0.000165463
0.000175886
0.000179166
0.000195466
0.000200412
0.000196657
0.000198538
0.000183733
0.000179293
0.000194701
0.000190281
0.000195905
0.00020147
0.00018886
0.000198085
0.000196999
0.000173693
0.00018773
0.000188184
0.00020119
0.000196834
0.000184142
0.000180258
0.000184871
0.000198015
0.000198428
0.000202139
0.000200898
0.000179298
0.000183573
0.00019802
0.000202196
0.000202533
0.000200436
0.000201013
0.00020143
0.000205239
0.000187112
0.000179452
0.000201243
0.000200775
0.000205508
0.000188244
0.000185127
0.000184793
0.000203162
0.000201924
0.000203901
0.00020246
0.000183849
0.000182899
0.000203287
0.000200047
0.000203677
0.000201291
0.000205045
0.000202552
0.000200846
0.000179076
0.000183741
0.000205216
0.000201349
0.000200653
0.000178864
0.000184309
0.000181943
0.000203705
0.00020228
0.000202126
0.000202486
0.000182614
0.000183398
0.000203481
0.000202983
0.000202315
0.000205018
0.000200247
0.0002021
0.000201654
0.000184779
0.000186351
0.000200133
0.000204863
0.000201985
0.000184837
0.00018166
0.000183719
0.000201888
0.000203052
0.000203056
0.000204342
0.000183773
0.000184785
0.000202111
0.000204977
0.000203181
0.000203783
0.000203836
0.000204741
0.00020621
0.000185906
0.000183273
0.000204194
0.000204121
0.000206291
0.000186855
0.000184177
0.000185669
0.000203929
0.000204523
0.000205592
0.00020472
0.000184595
0.000184379
0.000203902
0.000203483
0.000205478
0.000203674
0.000206092
0.000204752
0.000204257
0.000182916
0.000183691
0.000206122
0.000203746
0.000204149
0.000182907
0.000185678
0.000186134
0.000205878
0.000204932
0.000206489
0.000206181
0.000184393
0.000185961
0.000205805
0.000204444
0.000206525
0.000206425
0.000203992
0.000206016
0.000204984
0.000184107
0.000186366
0.000203897
0.00020624
0.000205031
0.000185232
0.000186042
0.000186493
0.000206692
0.000206663
0.000207341
0.000207764
0.000186136
0.00018715
0.000206736
0.000206904
0.000207356
0.000207676
0.000205993
0.000207838
0.000208221
0.000186459
0.000186917
0.00020604
0.00020776
0.00020824
0.00018784
0.000186525
0.000187337
0.000207613
0.000207963
0.000208393
0.00020816
0.000187026
0.000186871
0.000207619
0.000207826
0.000208412
0.000208295
0.000208475
0.000208261
0.000208313
0.000186798
0.00018718
0.000208486
0.000208382
0.000208326
0.00018667
0.000187224
0.000187731
0.000208564
0.000208309
0.000209026
0.000209385
0.000186805
0.000188279
0.00020859
0.000208465
0.00020903
0.00020896
0.00020827
0.000209373
0.000209076
0.000187098
0.000187607
0.000208286
0.000208947
0.000209085
0.000188149
0.000187772
0.000188249
0.00020935
0.000209631
0.000209949
0.00020958
0.000188268
0.000187388
0.00020933
0.000209201
0.00020996
0.000209914
0.000209578
0.000209632
0.000209709
0.000187611
0.000188252
0.000209571
0.000209962
0.000209714
0.00018747
0.000187922
0.000187558
0.000209879
0.000209521
0.000209715
0.000210133
0.000187173
0.000188718
0.000209911
0.000209992
0.000209771
0.000210009
0.000209601
0.000210124
0.000210154
0.00018806
0.000187989
0.000209627
0.000210022
0.000210229
0.000188833
0.000187766
0.000190658
0.000210018
0.00021069
0.000211932
0.000211392
0.000188952
0.000189196
0.00021005
0.000210174
0.000211927
0.000211545
0.000210803
0.000211463
0.00021138
0.000188036
0.000189798
0.000210845
0.000211582
0.000211371
0.000188915
0.000190348
0.000186779
0.000211962
0.000211428
0.000210654
0.000211151
0.000188966
0.000188361
0.000211963
0.000211629
0.000210691
0.000211048
0.000211306
0.000211118
0.000211136
0.000189623
0.000187768
0.000211304
0.000211037
0.000211169
0.000188557
0.000186573
0.000191242
0.000210461
0.000211097
0.00021223
0.000211857
0.000188188
0.000189818
0.000210492
0.000210922
0.000212248
0.000212204
0.000211198
0.000212009
0.000212068
0.00018762
0.000190707
0.000211229
0.000212335
0.000212096
0.00018973
0.000191698
0.000188835
0.000213123
0.000212505
0.000213002
0.000212977
0.000190041
0.000189924
0.000213141
0.000212733
0.000212986
0.00021246
0.000212368
0.000212952
0.000212709
0.000190885
0.00018838
0.000212401
0.000212427
0.000212715
0.000189636
0.000188043
0.000188683
0.000212133
0.000212692
0.00021169
0.000211838
0.000189407
0.000188466
0.00021211
0.000211941
0.000211741
0.000212301
0.000212577
0.000211951
0.00021229
0.000187974
0.000189887
0.000212571
0.000212388
0.00021232
0.000189162
0.000189305
0.000190759
0.000212082
0.000211985
0.000213428
0.000213323
0.00018871
0.000190798
0.00021217
0.000212702
0.000213434
0.000212947
0.00021232
0.000213339
0.000212843
0.000190168
0.00018959
0.000212353
0.000212924
0.000212804
0.000189894
0.000190655
0.00019024
0.000213715
0.000213635
0.000213799
0.0002137
0.000190753
0.000189933
0.000213696
0.000213086
0.000213777
0.000213643
0.000213249
0.000213696
0.000213937
0.000189487
0.000190774
0.00021321
0.000213721
0.000214003
0.000191149
0.000189552
0.000187516
0.000213339
0.000213213
0.000211701
0.000212035
0.000189287
0.000188251
0.000213393
0.000213557
0.000211764
0.000211957
0.000213767
0.000212134
0.00021188
0.000190317
0.000187584
0.000213867
0.00021199
0.000211874
0.000187382
0.0001878
0.000193732
0.00021217
0.000212521
0.000215279
0.000214898
0.00018862
0.000192796
0.000212181
0.000212127
0.000215224
0.000214782
0.000212106
0.000214885
0.000214704
0.00018763
0.000192847
0.000212016
0.000214752
0.000214632
0.000192687
0.000193317
0.000187225
0.000215325
0.000214919
0.000212613
0.000212869
0.000192304
0.000188116
0.000215294
0.000215007
0.00021273
0.000213397
0.000214871
0.000212897
0.000213426
0.000192716
0.000188587
0.000214873
0.000213568
0.000213679
0.000188923
0.000186908
0.000188916
0.000211988
0.000212413
0.000214283
0.00021448
0.000187969
0.000188782
0.000212069
0.000212521
0.000214248
0.000213847
0.000212732
0.000214582
0.000214208
0.000188128
0.000187705
0.000212894
0.00021386
0.000214046
0.000187879
0.000191406
0.000213668
0.000213545
0.000190876
0.000213615
0.000213026
0.000236078
0.000235758
0.000235749
0.000213118
0.000190083
0.000212957
9.24411e-05
5.00256e-05
9.21706e-05
5.0035e-05
2.36139e-05
2.36193e-05
9.24332e-05
5.00222e-05
9.21693e-05
5.00322e-05
0.000123729
0.000123693
0.000123721
0.00012573
0.000126011
0.000125909
0.000125869
0.000122167
9.39405e-05
0.00013555
0.000141041
0.000121582
9.4334e-05
0.000136445
2.36119e-05
2.36174e-05
0.000122139
0.00013555
9.38902e-05
0.00014089
0.000121558
0.000136422
9.43003e-05
7.38939e-05
7.38867e-05
0.000138626
7.39443e-05
7.39381e-05
9.28115e-05
5.00509e-05
9.26572e-05
5.00679e-05
2.36236e-05
2.36266e-05
9.28182e-05
5.00479e-05
9.2676e-05
5.00648e-05
0.000126724
0.000126634
0.000126591
0.000128732
0.000128713
0.000128693
0.000128872
0.000123505
9.46994e-05
0.000139176
0.000144061
0.000122966
9.48101e-05
0.000140031
2.36219e-05
2.36248e-05
0.00012352
0.000139143
9.47322e-05
0.000144059
0.000122966
0.000140035
9.48096e-05
7.40735e-05
7.40823e-05
0.000141134
7.42983e-05
7.43001e-05
9.33966e-05
5.00878e-05
9.31147e-05
5.00978e-05
2.36342e-05
2.36395e-05
9.33981e-05
5.00845e-05
9.311e-05
5.00947e-05
0.000129449
0.000129432
0.000129627
0.000132147
0.000131799
0.000132062
0.000131795
0.000124764
9.51069e-05
0.000142584
0.000147025
0.000124205
9.54929e-05
0.000143476
2.36325e-05
2.36382e-05
0.000124745
0.000142558
9.50316e-05
0.000147183
0.000124171
0.00014346
9.56091e-05
7.43979e-05
7.4386e-05
0.000143137
7.44047e-05
7.43917e-05
9.36941e-05
5.01095e-05
9.35829e-05
5.01237e-05
2.36437e-05
2.36486e-05
9.37143e-05
5.01069e-05
9.36354e-05
5.01204e-05
0.000132597
0.00013286
0.000132561
0.000135003
0.000135184
0.000134962
0.000134972
0.000125951
9.57112e-05
0.000146167
0.000150144
0.000125492
9.59293e-05
0.000147052
2.36413e-05
2.36442e-05
0.000126007
0.000146334
9.58711e-05
0.000150108
0.00012557
0.000147173
9.58282e-05
7.45423e-05
7.45618e-05
0.000145366
7.4574e-05
7.45969e-05
9.43023e-05
5.01461e-05
9.40224e-05
5.01568e-05
2.36551e-05
2.36589e-05
9.42707e-05
5.0142e-05
9.39808e-05
5.01544e-05
0.000136074
0.000135807
0.000135871
0.000138232
0.000138409
0.000138478
0.000138682
0.0001273
9.64666e-05
0.00014974
0.000153513
0.000126641
9.67702e-05
0.000150681
2.36537e-05
2.36584e-05
0.000127205
0.00014961
9.62688e-05
0.000153281
0.000126556
0.000150549
9.67485e-05
7.49815e-05
7.49601e-05
0.000148554
7.52212e-05
7.52101e-05
9.44851e-05
5.0174e-05
9.43755e-05
5.01907e-05
2.36628e-05
2.36704e-05
9.4534e-05
5.01716e-05
9.44387e-05
5.01871e-05
0.000139096
0.000139264
0.00013947
0.000141894
0.000141524
0.000141501
0.000141614
0.000128278
9.65819e-05
0.000153326
0.000155466
0.000128003
9.66916e-05
0.000154086
2.36612e-05
2.36672e-05
0.000128378
0.000153399
9.68286e-05
0.000155828
0.000128053
0.000154213
9.6817e-05
7.50953e-05
7.51085e-05
0.00014964
7.49004e-05
7.49111e-05
9.50971e-05
5.02072e-05
9.48535e-05
5.02168e-05
2.36789e-05
2.36822e-05
9.50606e-05
5.02038e-05
9.48509e-05
5.02136e-05
0.000142531
0.000142331
0.000142418
0.00014512
0.000145439
0.000145144
0.000145231
0.000129415
9.74443e-05
0.000156571
0.000159354
0.000128772
9.77928e-05
0.000157541
2.36768e-05
2.36809e-05
0.000129334
0.000156533
9.72147e-05
0.000158682
0.000128766
0.000157412
9.75685e-05
7.5192e-05
7.51837e-05
0.000152297
7.5505e-05
7.54929e-05
9.53202e-05
5.02358e-05
9.51754e-05
5.02538e-05
2.36855e-05
2.36908e-05
9.53255e-05
5.0233e-05
9.51228e-05
5.02514e-05
0.000146229
0.000146134
0.000146167
0.000148862
0.000148697
0.000149389
0.000148775
0.000130651
9.78459e-05
0.000160286
0.000161699
0.000130261
9.79258e-05
0.000161105
2.36859e-05
2.36911e-05
0.000130624
0.000160156
9.77976e-05
0.000162285
0.000130133
0.00016108
9.81948e-05
7.5647e-05
7.56316e-05
0.000154606
7.56034e-05
7.55987e-05
9.591e-05
5.02677e-05
9.57229e-05
5.02725e-05
2.36986e-05
2.3704e-05
9.59731e-05
5.02653e-05
9.58686e-05
5.0269e-05
0.000149635
0.000150386
0.000149715
0.000151891
0.000152069
0.000152035
0.0001522
0.000131692
9.82763e-05
0.000163653
0.000164478
0.000131138
9.86235e-05
0.000164527
2.36952e-05
2.36971e-05
0.000131938
0.000164116
9.87905e-05
0.000165014
0.000131399
0.000164977
9.86478e-05
7.56887e-05
7.57312e-05
0.000156118
7.58107e-05
7.5833e-05
9.58081e-05
5.02931e-05
9.57468e-05
5.03198e-05
2.37088e-05
2.37156e-05
9.56856e-05
5.02885e-05
9.56584e-05
5.03165e-05
0.000152761
0.000152529
0.000152845
0.00015588
0.000155621
0.000155469
0.000155663
0.000132331
9.84851e-05
0.000166728
0.000166508
0.000132209
9.84323e-05
0.000167395
2.3703e-05
2.37148e-05
0.000132044
0.000166581
9.80108e-05
0.000166049
0.000132037
0.000167138
9.8342e-05
7.57342e-05
7.5705e-05
0.000157866
7.57112e-05
7.56702e-05
9.67577e-05
5.0338e-05
9.63925e-05
5.03412e-05
2.3725e-05
2.37281e-05
9.68552e-05
5.03368e-05
9.65324e-05
5.03394e-05
0.000156809
0.000156546
0.000156818
0.000159655
0.000159532
0.000158871
0.000159393
0.000133932
9.94708e-05
0.000170048
0.000170532
0.000132902
9.99431e-05
0.000171078
2.37238e-05
2.37257e-05
0.000134158
0.000169918
9.97015e-05
0.000169896
0.000132953
0.000170953
9.97114e-05
7.62652e-05
7.62848e-05
0.000160868
7.65573e-05
7.65894e-05
9.65601e-05
5.03493e-05
9.66363e-05
5.03668e-05
2.37283e-05
2.37338e-05
9.63761e-05
5.03443e-05
9.64899e-05
5.03627e-05
0.000160256
0.000159846
0.000160045
0.000162636
0.000163346
0.000163946
0.000163202
0.000134192
9.93737e-05
0.00017358
0.000172129
0.000134571
9.92129e-05
0.000174209
2.3726e-05
2.3736e-05
0.000133881
0.000173343
9.88835e-05
0.000172378
0.000134292
0.000174002
9.92121e-05
7.5929e-05
7.59084e-05
0.000161563
7.56055e-05
7.55718e-05
9.72263e-05
5.03865e-05
9.70576e-05
5.03958e-05
2.37459e-05
2.37485e-05
9.74218e-05
5.03863e-05
9.73662e-05
5.03936e-05
0.00016434
0.000164855
0.000164525
0.000166549
0.000165335
0.000165409
0.000166651
0.000136489
0.000100569
0.000176408
0.000175139
0.000134545
0.000100852
0.000177354
2.37445e-05
2.37413e-05
0.000137003
0.000176763
0.000101366
0.000175561
0.000135101
0.000177784
0.00010099
7.72785e-05
7.73495e-05
0.000166377
7.7803e-05
7.78801e-05
9.71818e-05
5.04304e-05
9.69339e-05
5.04423e-05
2.37479e-05
2.37604e-05
9.69698e-05
5.04232e-05
9.66931e-05
5.04385e-05
0.000165763
0.000165846
0.000166705
0.00017002
0.000170554
0.000170276
0.000168161
0.000134717
9.89314e-05
0.00017924
0.000175077
0.00013629
9.87448e-05
0.000179477
2.37424e-05
2.37652e-05
0.000134347
0.00017924
9.81922e-05
0.000174504
0.000135907
0.00017928
9.858e-05
7.50012e-05
7.49463e-05
0.000160352
7.40073e-05
7.39555e-05
9.75798e-05
5.04042e-05
9.8174e-05
5.03976e-05
2.37781e-05
2.37705e-05
9.75198e-05
5.04042e-05
9.8338e-05
5.03938e-05
0.000172076
0.000171751
0.000169658
0.000171958
0.000173308
0.000174461
0.000174329
0.000139292
0.000102732
0.000181856
0.000182621
0.000135613
0.000103393
0.000183444
2.37772e-05
2.37618e-05
0.000139221
0.000181763
0.000102949
0.000182854
0.000136085
0.000183398
0.000103045
7.77966e-05
7.7859e-05
0.000172302
7.93263e-05
7.93285e-05
9.80645e-05
5.05331e-05
9.64534e-05
5.05785e-05
2.37554e-05
2.37766e-05
9.87932e-05
5.05291e-05
9.64778e-05
5.05824e-05
0.000173218
0.000174707
0.000175596
0.00017907
0.000176678
0.000173252
0.000177367
0.000135946
9.86717e-05
0.000186112
0.000179088
0.000138874
9.76745e-05
0.000185724
2.3757e-05
2.37824e-05
0.000137092
0.000186681
9.98223e-05
0.000178915
0.000138869
0.000186432
9.94177e-05
7.62829e-05
7.62606e-05
0.000167765
7.49995e-05
7.51358e-05
9.8471e-05
5.04066e-05
0.000100349
5.034e-05
2.38092e-05
2.37971e-05
9.64023e-05
5.03992e-05
0.00010009
5.03205e-05
0.00017845
0.00017392
0.000177902
0.000176059
0.000179581
0.000182562
0.000180308
0.000141416
0.000103848
0.000187058
0.00018736
0.000136919
0.00010558
0.00018894
2.37967e-05
2.37933e-05
0.000137797
0.000185509
9.98576e-05
0.000181584
0.00013663
0.000186426
9.98293e-05
7.77597e-05
7.76809e-05
0.000173264
7.90238e-05
7.84455e-05
9.63125e-05
5.05744e-05
9.48377e-05
5.07164e-05
2.37676e-05
2.37949e-05
0.000100194
5.05943e-05
9.45334e-05
5.07591e-05
0.000179274
0.000185602
0.00018049
0.000187985
0.000183362
0.000184913
0.000178597
0.000136547
9.87404e-05
0.000191402
0.000182544
0.000140601
9.62146e-05
0.000190593
2.38039e-05
2.38069e-05
0.000142852
0.000192112
0.000105029
0.000194456
0.000140055
0.000194308
0.000108323
7.65398e-05
7.62546e-05
0.000164096
7.42693e-05
7.49996e-05
0.00010233
5.05607e-05
0.000102231
5.03891e-05
2.38471e-05
2.38316e-05
9.77695e-05
5.05396e-05
0.000104188
5.03219e-05
0.000186465
0.00018253
0.000179575
0.00018494
0.000188892
0.000180646
0.000189755
0.000141874
0.000104172
0.00019079
0.000195139
0.000136351
0.000109109
0.000193407
2.37481e-05
2.37585e-05
0.000135268
0.000194239
9.97823e-05
0.000178304
0.000141699
0.000191994
9.14131e-05
7.42341e-05
7.50609e-05
0.000173899
7.71131e-05
7.59933e-05
9.51223e-05
5.04639e-05
9.66131e-05
5.06339e-05
2.37543e-05
2.37725e-05
9.7191e-05
5.04793e-05
9.18023e-05
5.07211e-05
0.000187107
0.000182822
0.000193659
0.000187354
0.000183762
0.000197319
0.000196106
0.000142278
0.000102312
0.000198738
0.000183205
0.000144975
9.54808e-05
0.000197854
2.38603e-05
2.3899e-05
0.000144549
0.0001902
9.81414e-05
0.000198177
0.000133084
0.000193281
0.000113768
8.43162e-05
8.2174e-05
0.000199825
8.48137e-05
8.45806e-05
0.000100497
5.07163e-05
9.80707e-05
5.06465e-05
2.38763e-05
2.39066e-05
0.000103021
5.07585e-05
0.000105982
5.05693e-05
0.000184666
0.000196757
0.000193332
0.000194568
0.000196793
0.000187131
0.000184114
0.000138449
9.69989e-05
0.000195365
0.000190111
0.000138176
0.000105108
0.000195464
2.37664e-05
2.37148e-05
0.000145732
0.000206916
0.000115432
0.000194159
0.000155936
0.000205966
9.75516e-05
7.38245e-05
7.61279e-05
0.000151042
6.80744e-05
6.88136e-05
9.98761e-05
5.05851e-05
0.000101368
5.06168e-05
2.38412e-05
2.37957e-05
9.29994e-05
5.04858e-05
9.27841e-05
5.06346e-05
0.000199324
0.000186144
0.000183293
0.000194514
0.000197604
0.000194488
0.000194681
0.000142528
0.000109488
0.000200896
0.000202443
0.000140822
0.000104883
0.000202121
2.38407e-05
2.39282e-05
0.000126502
0.000191724
8.62444e-05
0.000179177
0.000125374
0.000190848
9.708e-05
7.2647e-05
6.97843e-05
0.000177874
8.01194e-05
7.81871e-05
9.82887e-05
5.06783e-05
9.81701e-05
5.06893e-05
2.38076e-05
2.3855e-05
0.000104969
5.07811e-05
0.000102761
5.07355e-05
0.000196239
0.000201307
0.000201341
0.000200117
0.000194434
0.000205408
0.000206978
0.000144641
9.90471e-05
0.000203453
0.000189286
0.000144218
9.92292e-05
0.000203458
2.39147e-05
2.38175e-05
0.000158871
0.000205048
0.000117364
0.000211509
0.000152831
0.000211859
0.000116648
8.65047e-05
8.7686e-05
0.000202751
8.21324e-05
8.44331e-05
0.000100347
5.06686e-05
0.000100006
5.06552e-05
2.38886e-05
2.38865e-05
9.7e-05
5.05901e-05
0.000100007
5.05807e-05
0.000195578
0.000203176
0.000205683
0.000200802
0.000201906
0.000197837
0.00019849
0.000142844
0.000103914
0.00020509
0.000197702
0.000143681
0.00010497
0.00020586
2.37659e-05
2.38236e-05
0.000136672
0.000212946
9.85425e-05
0.000190459
0.000145649
0.000208442
9.49455e-05
7.46283e-05
7.4567e-05
0.000166818
7.31498e-05
7.22828e-05
9.89869e-05
5.0663e-05
9.95754e-05
5.06985e-05
2.3867e-05
2.38684e-05
9.9107e-05
5.06798e-05
9.69123e-05
5.07369e-05
0.000202961
0.000197356
0.000197227
0.000200883
0.000203543
0.000202258
0.000198333
0.000141403
0.000103582
0.000206073
0.000199095
0.000141494
0.000102479
0.000205739
2.39028e-05
2.39127e-05
0.000140513
0.000200879
0.000100511
0.000194055
0.000134688
0.000200747
0.000104902
7.54724e-05
7.49881e-05
0.00017334
7.71413e-05
7.72931e-05
9.98113e-05
5.0752e-05
9.89979e-05
5.077e-05
2.38862e-05
2.38961e-05
0.000100729
5.07641e-05
0.000100777
5.07593e-05
0.000203616
0.000204039
0.000201762
0.000206839
0.000206198
0.000206694
0.000209097
0.000144826
0.000102457
0.000206729
0.000198539
0.00014296
0.000103893
0.000207988
2.38841e-05
2.3876e-05
0.000146963
0.000207647
0.000106344
0.000202084
0.000146409
0.000209936
0.000104514
7.94525e-05
8.00068e-05
0.000189755
8.0127e-05
8.04534e-05
0.000100668
5.07713e-05
0.000100562
5.07634e-05
2.38961e-05
2.38934e-05
9.98946e-05
5.0755e-05
9.99376e-05
5.07559e-05
0.000207379
0.000206922
0.000210071
0.000210639
0.000209566
0.000208514
0.000209564
0.000146251
0.000104959
0.000212227
0.000202879
0.00014649
0.000104607
0.000213047
2.38844e-05
2.39002e-05
0.00014445
0.00021219
0.000102647
0.000200309
0.000145309
0.000212038
0.000102757
7.8856e-05
7.86313e-05
0.0001823
7.7535e-05
7.72831e-05
9.99218e-05
5.07462e-05
0.000100191
5.07448e-05
2.38946e-05
2.39022e-05
0.000100342
5.07552e-05
0.000100246
5.07529e-05
0.000209817
0.000209641
0.000209075
0.000210803
0.000210592
0.000212455
0.000209858
0.000143266
0.000103187
0.000212733
0.000201987
0.000143876
0.000103004
0.000212362
2.39079e-05
2.39071e-05
0.000144215
0.000212112
0.000104129
0.000203933
0.00014385
0.000212511
0.000104616
7.62643e-05
7.62571e-05
0.00017979
7.71484e-05
7.73445e-05
9.99146e-05
5.07633e-05
9.9694e-05
5.07879e-05
2.39107e-05
2.39139e-05
0.000100008
5.07583e-05
0.000100137
5.07765e-05
0.000211156
0.000212977
0.000211269
0.000212079
0.000213174
0.000213411
0.00021456
0.000145809
0.000103963
0.000212564
0.000203611
0.000144462
0.000104496
0.000213611
2.39007e-05
2.39017e-05
0.000145997
0.000214378
0.000104559
0.00020478
0.00014548
0.000214955
0.000104316
7.90116e-05
7.91193e-05
0.00018796
7.94193e-05
7.94482e-05
0.000100319
5.08086e-05
0.000100292
5.08123e-05
2.39159e-05
2.39189e-05
0.000100145
5.08019e-05
9.99935e-05
5.08095e-05
0.00021375
0.00021339
0.000215079
0.000215156
0.000214922
0.000214058
0.000214988
0.000145834
0.00010444
0.000216092
0.000204935
0.000146304
0.000104031
0.000216385
2.3909e-05
2.39175e-05
0.000145293
0.000215758
0.00010376
0.000203636
0.000145829
0.000215713
0.00010356
7.83232e-05
7.82519e-05
0.000184119
7.75786e-05
7.75186e-05
0.000100149
5.08163e-05
0.000100177
5.08254e-05
2.39263e-05
2.39328e-05
0.00010021
5.08159e-05
0.000100179
5.08234e-05
0.000215278
0.00021463
0.000214786
0.000217306
0.000216801
0.000216779
0.000215836
0.000144758
0.000103593
0.000216185
0.00020506
0.000144766
0.000103823
0.000216202
2.39267e-05
2.39319e-05
0.000144793
0.000215623
0.000103595
0.000204973
0.000144594
0.00021588
0.00010401
7.72799e-05
7.72946e-05
0.000183312
7.7781e-05
7.78077e-05
0.000100399
5.08383e-05
0.00010031
5.08421e-05
2.39377e-05
2.394e-05
0.000100403
5.08341e-05
0.000100367
5.08381e-05
0.000217459
0.000217512
0.00021673
0.000219175
0.000219394
0.000219381
0.000219485
0.000146178
0.000104318
0.000217567
0.000207059
0.00014565
0.000104478
0.000218213
2.39351e-05
2.3937e-05
0.000146209
0.000217665
0.000104423
0.000207194
0.000145784
0.00021832
0.000104473
7.8282e-05
7.82901e-05
0.000187043
7.84626e-05
7.84592e-05
0.000100413
5.08491e-05
0.000100394
5.0858e-05
2.39423e-05
2.3945e-05
0.000100401
5.08461e-05
0.000100376
5.08548e-05
0.000219916
0.000219891
0.000220147
0.000221073
0.000221049
0.00022112
0.000221195
0.000146487
0.000104528
0.00021989
0.000208189
0.000146422
0.000104473
0.000220234
2.39395e-05
2.39432e-05
0.000146427
0.000219877
0.000104422
0.00020811
0.000146365
0.000220191
0.000104423
7.85153e-05
7.85038e-05
0.000187407
7.83059e-05
7.82989e-05
0.000100381
5.08632e-05
0.000100387
5.08658e-05
2.39486e-05
2.39527e-05