/*--------------------------------*- C++ -*----------------------------------*\
| =========                 |                                                 |
| \\      /  F ield         | OpenFOAM: The Open Source CFD Toolbox           |
|  \\    /   O peration     | Version:  v2012                                 |
|   \\  /    A nd           | Website:  www.openfoam.com                      |
|    \\/     M anipulation  |                                                 |
\*---------------------------------------------------------------------------*/
FoamFile
{
    version     2.0;
    format      ascii;
    class       volScalarField;
    location    "500";
    object      p;
}
// * * * * * * * * * * * * * * * * * * * * * * * * * * * * * * * * * * * * * //

dimensions      [0 2 -2 0 0 0 0];


internalField   nonuniform List<scalar> 
85864
(
0.00167372
0.00167366
0.00167367
0.00167571
0.00163777
0.00163764
0.00163764
0.00163973
0.00160186
0.00160177
0.00160179
0.0016038
0.00156599
0.00156591
0.00156587
0.00156797
0.00153023
0.0015301
0.00153014
0.00153218
0.00149453
0.0014944
0.00149437
0.0014964
0.00145882
0.00145873
0.00145875
0.0014608
0.00142324
0.00142307
0.00142312
0.0014251
0.00138758
0.00138749
0.0013874
0.00138952
0.00135214
0.00135197
0.00135204
0.001354
0.00131657
0.00131645
0.00131641
0.00131849
0.00128106
0.00128094
0.00128107
0.00128297
0.00124559
0.00124539
0.00124523
0.00124743
0.0012102
0.0012102
0.00121031
0.00121203
0.00117467
0.00117449
0.00117446
0.00117688
0.00113969
0.00113933
0.00113919
0.00114095
0.00110336
0.00110372
0.00110408
0.00110604
0.00106948
0.00106852
0.00106838
0.00107019
0.00103219
0.00103337
0.0010324
0.00103575
0.000998455
0.00099675
0.000999605
0.000999391
0.00096226
0.000963682
0.000959594
0.000963312
0.000927089
0.000926051
0.000929441
0.000931275
0.000891991
0.000891953
0.000890767
0.000892782
0.000855808
0.000856185
0.000855341
0.000857435
0.000820935
0.000820548
0.000821772
0.000823694
0.000785697
0.000785689
0.00078513
0.000787482
0.000749935
0.000749738
0.000749881
0.000751426
0.000714266
0.000714294
0.000714358
0.000716552
0.000678844
0.00067885
0.000678661
0.000680812
0.00064332
0.000643122
0.000643186
0.000645005
0.000607716
0.000607696
0.000607739
0.0006098
0.000572136
0.000572112
0.000572078
0.000574155
0.000536489
0.000536384
0.0005364
0.000538362
0.000500763
0.000500742
0.000500715
0.000502781
0.000465065
0.000464966
0.000465015
0.000466999
0.000429239
0.000429249
0.000429202
0.000431284
0.000393586
0.000393471
0.000393517
0.000395492
0.000357559
0.000357571
0.000357529
0.000359619
0.000321864
0.000321773
0.000321822
0.00032382
0.000285894
0.000285881
0.00028581
0.000287902
0.000249862
0.000249793
0.00024989
0.00025189
0.000214039
0.000214029
0.00021394
0.000216007
0.000177977
0.000177916
0.000177987
0.000180033
0.000141752
0.00014173
0.000141688
0.000143688
0.00010604
0.000106042
0.000106041
0.000108106
6.95038e-05
6.94216e-05
6.94598e-05
7.14549e-05
3.42743e-05
3.3726e-05
3.3649e-05
3.54419e-05
6.15971e-06
7.03509e-06
7.09323e-06
5.41401e-06
0.00167569
0.00164459
0.00167362
0.00167366
0.00164665
0.00164663
0.00167573
0.00164452
0.00167362
0.00167367
0.00164665
0.00164663
0.00167364
0.00164663
0.00164666
0.00167575
0.00164452
0.00167364
0.00164663
0.00164666
0.00164456
0.00163978
0.00160861
0.0016377
0.00163764
0.00161074
0.00161074
0.00163971
0.00160866
0.0016377
0.00163764
0.00161074
0.00161076
0.00163767
0.00161074
0.00161071
0.0016397
0.00160869
0.00163767
0.00161076
0.00161071
0.00160861
0.00160378
0.00157275
0.00160174
0.00160177
0.00157483
0.00157486
0.00160383
0.00157277
0.00160174
0.00160179
0.00157483
0.00157482
0.00160174
0.00157486
0.00157487
0.00160385
0.00157272
0.00160174
0.00157482
0.00157486
0.00157278
0.00156795
0.00153697
0.00156589
0.00156591
0.00153906
0.00153906
0.00156796
0.00153696
0.00156589
0.00156587
0.00153906
0.00153909
0.00156591
0.00153906
0.00153909
0.00156792
0.001537
0.00156591
0.00153909
0.00153909
0.001537
0.00153217
0.00150129
0.00153012
0.0015301
0.00150334
0.00150329
0.00153214
0.00150124
0.00153012
0.00153014
0.00150334
0.00150329
0.00153013
0.00150329
0.00150327
0.00153218
0.00150122
0.00153013
0.00150329
0.00150327
0.00150119
0.00149647
0.0014655
0.00149443
0.0014944
0.0014676
0.00146767
0.00149645
0.00146556
0.00149443
0.00149438
0.0014676
0.00146766
0.00149435
0.00146767
0.00146767
0.00149642
0.00146558
0.00149435
0.00146766
0.00146767
0.00146561
0.00146072
0.00142999
0.00145868
0.00145872
0.00143203
0.00143196
0.00146075
0.0014299
0.00145868
0.00145874
0.00143204
0.00143203
0.00145876
0.00143196
0.00143199
0.00146078
0.00142997
0.00145876
0.00143203
0.00143199
0.0014299
0.00142518
0.00139425
0.00142313
0.00142307
0.00139634
0.00139641
0.00142511
0.00139433
0.00142314
0.00142312
0.00139634
0.00139632
0.00142307
0.0013964
0.00139638
0.00142516
0.00139421
0.00142308
0.00139632
0.00139637
0.00139431
0.00138946
0.00135887
0.00138744
0.00138749
0.00136088
0.00136082
0.00138952
0.00135877
0.00138743
0.00138739
0.00136088
0.00136084
0.00138749
0.00136082
0.00136082
0.00138941
0.00135885
0.00138748
0.00136084
0.00136082
0.00135878
0.00135409
0.0013232
0.00135204
0.00135198
0.00132532
0.00132539
0.001354
0.00132328
0.00135204
0.00135204
0.00132533
0.00132534
0.00135196
0.00132539
0.00132539
0.00135409
0.00132319
0.00135197
0.00132534
0.0013254
0.00132331
0.00131841
0.00128777
0.00131639
0.00131645
0.0012898
0.00128978
0.00131845
0.00128776
0.00131641
0.0013164
0.0012898
0.00128988
0.00131649
0.00128977
0.00128975
0.00131838
0.00128791
0.00131649
0.00128987
0.00128975
0.00128771
0.00128297
0.00125227
0.00128095
0.00128095
0.00125433
0.00125435
0.00128298
0.0012522
0.00128095
0.00128108
0.00125433
0.00125422
0.00128093
0.00125435
0.00125447
0.00128313
0.001252
0.00128094
0.00125423
0.00125447
0.00125234
0.00124754
0.00121696
0.00124551
0.00124539
0.00121906
0.00121892
0.00124736
0.00121699
0.0012455
0.00124522
0.00121905
0.00121899
0.00124547
0.00121888
0.00121862
0.00124719
0.00121714
0.00124546
0.00121896
0.00121862
0.00121664
0.00121199
0.00118108
0.00121004
0.00121023
0.00118316
0.00118355
0.00121226
0.0011813
0.00121005
0.00121035
0.00118317
0.0011835
0.00120999
0.00118364
0.00118398
0.00121242
0.0011812
0.00121
0.00118357
0.00118398
0.00118188
0.00117657
0.00114689
0.00117455
0.00117439
0.00114881
0.00114793
0.00117638
0.00114605
0.00117455
0.00117436
0.00114884
0.00114802
0.00117491
0.00114782
0.00114763
0.00117635
0.00114604
0.00117491
0.0011479
0.00114764
0.0011456
0.00114168
0.00110927
0.00113968
0.00113944
0.0011116
0.00111295
0.00114145
0.00111067
0.00113969
0.00113932
0.00111156
0.00111275
0.00113894
0.00111306
0.00111298
0.00114129
0.00111074
0.00113895
0.00111286
0.00111294
0.00111093
0.00110493
0.00107719
0.00110297
0.00110357
0.00107858
0.00107688
0.00110556
0.001075
0.00110295
0.00110394
0.00107867
0.00107777
0.00110402
0.00107678
0.00107693
0.00110602
0.00107553
0.001104
0.00107768
0.00107703
0.00107492
0.00107216
0.00103795
0.00106988
0.00106869
0.00104083
0.00104281
0.00107064
0.00104066
0.00106992
0.00106854
0.00104055
0.00104061
0.00106814
0.00104285
0.00104237
0.00107035
0.00103858
0.00106822
0.00104068
0.00104212
0.00104039
0.00103314
0.00100549
0.00103158
0.0010332
0.00100686
0.00100505
0.00103529
0.00100301
0.00103136
0.00103223
0.00100717
0.00100853
0.00103375
0.00100514
0.00100668
0.00103433
0.00100724
0.00103354
0.00100859
0.001007
0.00100454
0.00100097
0.000968951
0.000998593
0.000996841
0.000971575
0.000972702
0.000998767
0.000971089
0.000998979
0.000999659
0.000971309
0.00096894
0.000997273
0.000972371
0.000969726
0.00100186
0.00096584
0.000997706
0.000968683
0.000969513
0.000967637
0.000963912
0.000933592
0.000962224
0.000963933
0.0009354
0.00093498
0.00096611
0.00093255
0.000961737
0.000959763
0.000935421
0.000936954
0.000961477
0.000935246
0.000937296
0.000961351
0.000935936
0.000960998
0.000937164
0.000937213
0.000935861
0.000929025
0.000898856
0.000926864
0.000925753
0.000900847
0.000900402
0.000927605
0.000898729
0.000927163
0.00092923
0.000901156
0.000901049
0.00092888
0.000900443
0.000900543
0.000931695
0.000897964
0.000929102
0.000901147
0.000900937
0.000897958
0.000893904
0.000862502
0.000891896
0.000892041
0.000864764
0.000865551
0.000894103
0.000863329
0.00089191
0.00089074
0.000864386
0.000863506
0.000890865
0.000865359
0.000863851
0.000892606
0.000861906
0.000890949
0.000863314
0.000863448
0.000861938
0.000857696
0.000827663
0.000855821
0.000856315
0.000829519
0.000829161
0.000858263
0.000827103
0.000855536
0.000855457
0.0008297
0.000830569
0.000855451
0.000829256
0.000830143
0.000857558
0.000828688
0.000855183
0.000830657
0.000830315
0.000828426
0.000822955
0.000792418
0.000820827
0.00082043
0.000794494
0.000794466
0.000822431
0.000792526
0.000821037
0.000821662
0.000794509
0.000794152
0.00082149
0.000794504
0.000794659
0.000823764
0.000791917
0.000821709
0.000794172
0.000794678
0.000792446
0.000787567
0.000756674
0.000785609
0.00078568
0.000758779
0.000758791
0.000787733
0.000756643
0.000785545
0.000785127
0.000758732
0.000758712
0.000785552
0.000758734
0.000758364
0.000787055
0.000756737
0.000785499
0.000758652
0.000758315
0.000756209
0.000751822
0.000721014
0.00074982
0.00074979
0.000723045
0.000723087
0.000751764
0.000721087
0.000749813
0.000749934
0.000723086
0.000723296
0.000749461
0.000723096
0.000723212
0.000751949
0.000721209
0.000749456
0.000723303
0.000723252
0.000721313
0.000716203
0.000685659
0.000714177
0.000714261
0.000687675
0.000687731
0.000716299
0.000685699
0.000714202
0.000714324
0.000687643
0.000687519
0.000714487
0.000687774
0.000687874
0.000716336
0.000685467
0.000714508
0.000687557
0.000687837
0.000685731
0.000680851
0.000650101
0.000678835
0.000678833
0.000652168
0.00065207
0.000680852
0.000649996
0.000678803
0.000678647
0.000652166
0.00065209
0.00067884
0.000652024
0.000651865
0.000680656
0.000650061
0.000678803
0.000652044
0.000651863
0.000649798
0.000645254
0.000614485
0.000643238
0.000643166
0.000616521
0.000616542
0.000645162
0.000614526
0.00064325
0.000643229
0.000616535
0.000616613
0.000642998
0.000616548
0.00061658
0.000645242
0.000614579
0.000643008
0.000616617
0.000616594
0.000614602
0.000609658
0.000578924
0.000607638
0.000607677
0.000580975
0.000581013
0.000609709
0.000578966
0.000607647
0.00060772
0.000580971
0.000580983
0.000607755
0.000581034
0.000581087
0.000609746
0.000578927
0.000607764
0.000581005
0.000581082
0.000579014
0.000574088
0.000543312
0.000572074
0.000572098
0.000545351
0.000545322
0.00057412
0.000543262
0.000572068
0.000572064
0.00054535
0.000545325
0.000572146
0.000545314
0.000545291
0.000574083
0.000543277
0.000572139
0.000545317
0.00054529
0.000543218
0.000538461
0.00050758
0.000536434
0.000536395
0.000509636
0.000509652
0.00053841
0.000507619
0.000536435
0.000536412
0.000509636
0.000509642
0.000536348
0.000509644
0.000509629
0.000538431
0.000507592
0.000536349
0.000509635
0.00050963
0.000507612
0.000502732
0.000471915
0.000500708
0.000500742
0.000473952
0.000473928
0.000502775
0.00047186
0.000500705
0.000500714
0.000473951
0.000473946
0.000500745
0.000473936
0.000473961
0.000502742
0.000471906
0.000500744
0.000473954
0.000473961
0.000471879
0.000467051
0.000436055
0.000465015
0.000464965
0.000438121
0.000438151
0.000466991
0.000436128
0.000465018
0.000465015
0.000438124
0.000438145
0.000464974
0.000438145
0.000438133
0.000467047
0.000436088
0.000464977
0.000438141
0.000438137
0.000436114
0.000431204
0.000400479
0.000429184
0.000429248
0.000402487
0.000402457
0.000431288
0.000400385
0.000429182
0.000429199
0.00040248
0.000402445
0.000429247
0.000402465
0.000402471
0.000431229
0.000400419
0.000429245
0.000402451
0.000402464
0.000400387
0.000395617
0.000364398
0.000393563
0.000393475
0.000366503
0.000366531
0.000395499
0.000364478
0.000393561
0.000393521
0.000366509
0.00036654
0.000393466
0.000366523
0.000366513
0.000395561
0.000364454
0.000393465
0.000366532
0.00036652
0.000364475
0.000359494
0.000328727
0.000357475
0.000357567
0.000330711
0.000330705
0.000359607
0.000328667
0.000357476
0.000357524
0.000330704
0.000330703
0.000357579
0.000330717
0.000330737
0.000359558
0.000328708
0.00035758
0.000330717
0.000330732
0.000328689
0.000323906
0.000292815
0.00032185
0.000321771
0.000294945
0.000294922
0.000323815
0.000292851
0.000321851
0.000321822
0.000294947
0.000294904
0.000321775
0.000294905
0.000294867
0.000323872
0.000292778
0.000321774
0.000294884
0.000294868
0.000292802
0.00028786
0.000256687
0.000285832
0.000285888
0.000258692
0.000258732
0.000287929
0.000256675
0.000285827
0.000285816
0.000258692
0.000258764
0.000285863
0.00025875
0.000258806
0.000287848
0.000256779
0.000285859
0.000258784
0.000258806
0.000256757
0.000251872
0.000221005
0.000249815
0.000249778
0.000223074
0.000223039
0.000251822
0.000220999
0.000249825
0.00024988
0.000223077
0.000223017
0.00024984
0.000223025
0.000222968
0.000251942
0.000220907
0.000249846
0.000223002
0.000222969
0.000220905
0.000216072
0.000184865
0.00021403
0.000214042
0.000186907
0.000186921
0.000216095
0.000184865
0.00021402
0.000213951
0.0001869
0.000186917
0.000213969
0.000186927
0.00018697
0.000215982
0.000184918
0.00021396
0.000186927
0.000186967
0.00018494
0.000179964
0.000148636
0.000177918
0.000177907
0.000150749
0.000150758
0.000179951
0.000148658
0.000177923
0.000177976
0.000150757
0.000150785
0.00017798
0.00015076
0.00015075
0.000180031
0.000148654
0.000177989
0.000150784
0.000150754
0.000148617
0.000143723
0.000113068
0.000141703
0.000141731
0.00011501
0.000114994
0.000143758
0.000113032
0.0001417
0.000141696
0.000114993
0.000114941
0.000141678
0.000114986
0.000114964
0.00014372
0.000112991
0.000141666
0.000114929
0.000114948
0.000113016
0.000108149
7.6344e-05
0.000106091
0.000106044
7.8511e-05
7.85221e-05
0.000108099
7.63761e-05
0.000106078
0.000106045
7.85243e-05
7.85932e-05
0.000106051
7.85273e-05
7.8574e-05
0.000108089
7.64556e-05
0.000106052
7.86089e-05
7.85978e-05
7.64404e-05
7.13472e-05
4.05442e-05
6.93673e-05
6.94108e-05
4.25355e-05
4.25469e-05
7.14002e-05
4.05477e-05
6.93718e-05
6.94472e-05
4.25184e-05
4.24535e-05
6.945e-05
4.25498e-05
4.24992e-05
7.14577e-05
4.04416e-05
6.94617e-05
4.24446e-05
4.2469e-05
4.04751e-05
3.55542e-05
8.48692e-06
3.37632e-05
3.37355e-05
1.14564e-05
1.14082e-05
3.55222e-05
8.42984e-06
3.37489e-05
3.36651e-05
1.14632e-05
1.14663e-05
3.36657e-05
1.13888e-05
1.13827e-05
3.54353e-05
8.51867e-06
3.36498e-05
1.14497e-05
1.13986e-05
8.43147e-06
5.41787e-06
7.0761e-06
7.03379e-06
5.39538e-06
7.07838e-06
7.08726e-06
6.14238e-06
6.18359e-06
6.16215e-06
7.03549e-06
5.47681e-06
7.04204e-06
0.00166226
0.00167572
0.00167573
0.00166226
0.00167571
0.00166222
0.00166226
0.00167573
0.00167573
0.00166226
0.00167374
0.00167374
0.00167373
0.00164674
0.00164673
0.00164673
0.00164675
0.00166237
0.00167571
0.00167371
0.00166465
0.00167572
0.0016623
0.00166471
0.00167571
0.00166223
0.00166238
0.00167372
0.00167571
0.00166466
0.00167573
0.00166471
0.0016623
0.00167574
0.00167574
0.00166254
0.00166226
0.00166226
0.00162632
0.00163975
0.00163976
0.00162628
0.00163977
0.00162633
0.00162632
0.00163975
0.00163976
0.00162628
0.00163774
0.00163774
0.00163776
0.00161084
0.00161083
0.00161084
0.00161082
0.00162642
0.00163973
0.00163772
0.00162867
0.00163974
0.00162636
0.00162874
0.00163976
0.00162634
0.00162641
0.00163772
0.00163973
0.00162866
0.00163974
0.00162874
0.00162635
0.00163974
0.00163974
0.00162657
0.00162629
0.00162629
0.00159042
0.00160381
0.00160384
0.00159041
0.00160382
0.00159041
0.00159042
0.00160381
0.00160384
0.00159041
0.00160186
0.00160188
0.00160185
0.00157494
0.00157496
0.00157494
0.00157496
0.00159054
0.00160383
0.00160182
0.00159279
0.00160384
0.00159047
0.00159285
0.0016038
0.00159036
0.00159054
0.00160182
0.00160382
0.0015928
0.00160384
0.00159285
0.00159046
0.00160387
0.00160387
0.0015907
0.00159044
0.00159044
0.00155461
0.00156801
0.001568
0.0015546
0.00156799
0.00155458
0.00155461
0.00156801
0.00156799
0.0015546
0.00156601
0.00156598
0.00156601
0.00153917
0.00153918
0.00153919
0.00153919
0.0015547
0.00156797
0.00156597
0.00155697
0.00156798
0.00155464
0.00155702
0.00156803
0.00155463
0.0015547
0.00156595
0.00156797
0.00155694
0.00156797
0.00155701
0.00155465
0.001568
0.001568
0.00155489
0.0015546
0.0015546
0.00151884
0.00153222
0.00153221
0.00151883
0.00153219
0.00151886
0.00151884
0.00153222
0.00153222
0.00151883
0.00153022
0.00153025
0.00153025
0.00150345
0.00150341
0.00150341
0.0015034
0.00151893
0.00153219
0.00153017
0.00152114
0.0015322
0.00151889
0.00152123
0.00153216
0.00151884
0.00151894
0.00153019
0.00153219
0.00152118
0.00153221
0.00152124
0.00151887
0.00153218
0.00153218
0.00151906
0.00151882
0.00151882
0.00148315
0.00149649
0.00149651
0.00148313
0.00149655
0.00148311
0.00148315
0.00149648
0.0014965
0.00148313
0.0014945
0.00149449
0.00149447
0.00146774
0.00146778
0.00146777
0.00146777
0.00148324
0.00149648
0.00149444
0.00148551
0.00149646
0.00148319
0.00148553
0.00149654
0.00148315
0.00148324
0.00149443
0.00149648
0.00148547
0.00149646
0.00148551
0.0014832
0.00149654
0.00149654
0.0014834
0.00148316
0.00148316
0.00144749
0.00146083
0.00146082
0.00144749
0.00146077
0.00144749
0.0014475
0.00146083
0.00146083
0.0014475
0.00145886
0.00145886
0.00145887
0.00143213
0.0014321
0.00143214
0.00143212
0.00144759
0.00146079
0.00145879
0.00144979
0.00146082
0.00144752
0.00144988
0.00146081
0.00144748
0.0014476
0.0014588
0.00146081
0.00144984
0.00146083
0.00144989
0.00144751
0.00146081
0.00146082
0.00144775
0.00144746
0.00144746
0.00141189
0.00142519
0.00142521
0.00141185
0.00142524
0.00141188
0.00141187
0.00142519
0.00142521
0.00141184
0.00142319
0.00142324
0.00142321
0.0013965
0.00139653
0.00139648
0.00139651
0.00141196
0.00142518
0.00142313
0.00141419
0.00142516
0.00141192
0.00141423
0.00142516
0.00141181
0.00141196
0.00142316
0.00142515
0.0014142
0.00142517
0.00141424
0.00141189
0.00142521
0.0014252
0.0014121
0.00141189
0.00141188
0.00137632
0.00138964
0.0013896
0.00137635
0.0013896
0.00137632
0.00137631
0.00138962
0.00138958
0.00137635
0.00138762
0.00138755
0.00138761
0.00136097
0.00136094
0.00136094
0.00136094
0.00137639
0.0013896
0.00138755
0.00137859
0.00138959
0.00137635
0.00137865
0.00138963
0.00137641
0.00137637
0.0013875
0.00138959
0.00137851
0.00138956
0.0013786
0.00137636
0.00138962
0.00138961
0.00137652
0.00137631
0.00137631
0.00134081
0.00135407
0.00135411
0.00134075
0.00135413
0.00134078
0.00134083
0.00135409
0.00135413
0.00134075
0.00135209
0.00135212
0.00135207
0.00132548
0.00132552
0.0013255
0.00132553
0.00134088
0.00135405
0.00135201
0.00134314
0.00135404
0.00134083
0.00134316
0.00135413
0.00134071
0.00134091
0.00135203
0.00135406
0.0013432
0.00135405
0.00134318
0.00134084
0.00135408
0.00135409
0.00134106
0.00134078
0.00134078
0.00130526
0.00131855
0.00131854
0.00130528
0.00131849
0.00130528
0.00130527
0.00131855
0.00131854
0.00130529
0.0013166
0.00131656
0.00131663
0.00128992
0.00128989
0.00128996
0.00128987
0.00130537
0.00131854
0.00131652
0.00130752
0.00131858
0.00130531
0.00130762
0.00131856
0.00130538
0.00130536
0.00131652
0.00131857
0.00130751
0.00131859
0.00130762
0.00130533
0.00131857
0.00131857
0.00130546
0.00130529
0.00130529
0.00126983
0.00128312
0.00128309
0.00126984
0.00128314
0.00126978
0.00126984
0.00128314
0.0012831
0.00126985
0.00128106
0.00128115
0.00128103
0.00125444
0.00125449
0.00125441
0.00125458
0.00126986
0.00128302
0.00128097
0.00127213
0.00128298
0.00126983
0.00127213
0.00128308
0.0012696
0.00126989
0.00128102
0.00128299
0.00127223
0.00128299
0.00127216
0.0012698
0.00128312
0.00128312
0.00127016
0.00126974
0.00126974
0.00123435
0.00124764
0.00124763
0.00123428
0.0012476
0.00123451
0.00123432
0.00124759
0.00124758
0.00123425
0.00124556
0.00124543
0.00124562
0.00121913
0.00121897
0.00121902
0.00121877
0.0012344
0.00124763
0.00124552
0.00123647
0.00124767
0.00123442
0.0012366
0.00124763
0.00123467
0.00123434
0.00124545
0.00124763
0.00123634
0.00124762
0.00123653
0.00123441
0.00124747
0.00124747
0.00123421
0.00123444
0.00123445
0.00119893
0.00121212
0.00121218
0.00119904
0.00121227
0.00119864
0.00119897
0.00121215
0.00121222
0.00119906
0.00121026
0.00121032
0.00121008
0.00118337
0.00118373
0.00118369
0.00118397
0.0011991
0.0012121
0.00121009
0.00120151
0.00121204
0.00119893
0.00120137
0.00121222
0.00119849
0.00119915
0.00121013
0.00121213
0.0012016
0.00121208
0.0012014
0.00119897
0.00121249
0.0012125
0.00119958
0.001199
0.001199
0.0011636
0.00117701
0.00117678
0.00116345
0.00117662
0.00116388
0.0011636
0.001177
0.00117676
0.00116345
0.00117466
0.00117466
0.001175
0.00114867
0.00114802
0.00114809
0.00114791
0.00116347
0.00117678
0.00117476
0.00116538
0.00117696
0.00116357
0.00116573
0.00117664
0.00116392
0.00116343
0.00117476
0.0011767
0.00116544
0.00117688
0.00116576
0.00116351
0.00117645
0.00117645
0.00116338
0.00116341
0.00116341
0.001128
0.00114093
0.00114138
0.00112795
0.00114169
0.00112779
0.00112803
0.00114093
0.00114142
0.00112792
0.00113942
0.0011393
0.00113914
0.00111208
0.001113
0.00111285
0.00111294
0.00112828
0.00114134
0.00113915
0.00113079
0.00114108
0.00112819
0.00113051
0.0011417
0.00112812
0.0011283
0.00113911
0.0011415
0.00113046
0.00114118
0.00113036
0.00112842
0.00114153
0.00114153
0.0011285
0.00112811
0.00112812
0.00109291
0.00110664
0.00110587
0.00109315
0.00110549
0.00109308
0.001093
0.00110671
0.00110596
0.0010933
0.0011038
0.00110411
0.00110404
0.00107824
0.00107711
0.0010778
0.0010772
0.00109264
0.00110588
0.00110395
0.00109442
0.0011062
0.00109276
0.00109486
0.00110592
0.00109243
0.00109277
0.00110406
0.00110585
0.00109537
0.00110607
0.00109526
0.00109227
0.00110581
0.00110586
0.00109274
0.00109279
0.00109281
0.00105734
0.00107006
0.0010709
0.00105676
0.00107132
0.00105716
0.00105686
0.00106994
0.00107074
0.00105637
0.00106871
0.00106859
0.00106834
0.00104126
0.00104261
0.00104105
0.00104224
0.00105766
0.00107066
0.00106837
0.00106024
0.00107034
0.00105741
0.00105985
0.00106992
0.00105729
0.00105741
0.00106844
0.00107042
0.0010589
0.00107059
0.00105936
0.00105756
0.00107111
0.00107098
0.00105753
0.00105779
0.0010577
0.00102171
0.00103539
0.00103471
0.00102251
0.00103395
0.0010217
0.00102239
0.00103543
0.00103487
0.00102305
0.0010333
0.00103254
0.00103359
0.00100687
0.0010057
0.00100793
0.00100695
0.00102188
0.00103499
0.00103345
0.00102366
0.00103556
0.00102184
0.00102424
0.00103663
0.00102278
0.00102208
0.00103269
0.00103559
0.0010246
0.00103489
0.00102436
0.00102215
0.00103492
0.00103506
0.00102302
0.00102071
0.00102097
0.000987213
0.00100013
0.00100034
0.000986548
0.00100143
0.000987723
0.000986498
0.00100035
0.00100046
0.000986041
0.000997135
0.000999139
0.000997694
0.00097156
0.000972127
0.000969908
0.000970163
0.000986483
0.00100004
0.000997117
0.000988726
0.000999288
0.000987011
0.00098852
0.00099776
0.000985044
0.000986695
0.000998742
0.000999209
0.000989405
0.00100054
0.000989373
0.000985993
0.000999057
0.000999007
0.000985281
0.000987134
0.000986812
0.000950902
0.000964517
0.000964514
0.000951237
0.000963292
0.00094977
0.000951138
0.000963852
0.000963772
0.000951362
0.000963337
0.000960671
0.000961404
0.000935629
0.000935606
0.00093671
0.000936843
0.000951616
0.000964188
0.000962762
0.00095439
0.000964778
0.000950893
0.000953923
0.000966222
0.00095328
0.000950744
0.000960642
0.000964448
0.000951651
0.000963302
0.00095203
0.000951991
0.000965949
0.000965798
0.00095174
0.000952283
0.000952436
0.000915971
0.000929046
0.000928818
0.00091589
0.000929435
0.000917014
0.000916528
0.000929822
0.000929956
0.000916318
0.000926527
0.000928597
0.000928434
0.000901016
0.000900502
0.000901383
0.000901159
0.000916055
0.000929131
0.000927048
0.000917243
0.000929271
0.000916348
0.000918225
0.000928854
0.000914216
0.000917689
0.000928632
0.00093005
0.00092106
0.000930536
0.000920241
0.000916074
0.000928379
0.000928767
0.000917769
0.000914605
0.00091472
0.000880804
0.000893908
0.000894156
0.00088064
0.000894508
0.00088051
0.000879912
0.000893368
0.000893307
0.000880079
0.000891912
0.000891466
0.000891468
0.000864705
0.000865272
0.000863779
0.000863973
0.000880483
0.000894116
0.000891715
0.000883291
0.000893723
0.000880668
0.000882784
0.000893179
0.000881417
0.000879313
0.000891577
0.000893197
0.000880832
0.000893251
0.000881704
0.000879993
0.000893559
0.000893224
0.000878879
0.000881026
0.000880773
0.00084484
0.0008583
0.000858178
0.000845016
0.000857778
0.000844664
0.000845348
0.000858413
0.000858356
0.000845306
0.000856275
0.00085535
0.000855343
0.00082963
0.000829454
0.000830227
0.000829993
0.000845028
0.000857972
0.000855951
0.000847062
0.000858106
0.000844831
0.000847078
0.000859057
0.000845202
0.000845423
0.000855002
0.000858448
0.000847357
0.000857736
0.000846871
0.000845371
0.000858764
0.000858867
0.000845366
0.000845385
0.000845541
0.000809828
0.000822993
0.000822905
0.000809817
0.00082308
0.000809953
0.000809792
0.000823166
0.000823225
0.000809787
0.000820694
0.000821504
0.000821348
0.000794584
0.000794523
0.000794473
0.000794831
0.000809977
0.000822988
0.00082083
0.000811906
0.000823018
0.000809928
0.000812122
0.000822532
0.00080948
0.000810177
0.00082163
0.000823079
0.000812616
0.000823691
0.000812756
0.000809782
0.00082303
0.000823061
0.000810678
0.000809623
0.000809577
0.000774346
0.00078762
0.000787721
0.000774281
0.000787661
0.000774279
0.000774247
0.000787502
0.000787495
0.000774218
0.000785702
0.000785429
0.000785755
0.000758886
0.000758884
0.000758755
0.000758587
0.000774373
0.000787676
0.000785688
0.000776768
0.000787657
0.000774326
0.000776738
0.000787819
0.000774575
0.000774132
0.000785444
0.000787515
0.000776222
0.000787379
0.000776411
0.000774335
0.000787298
0.000787246
0.000774203
0.00077411
0.000774101
0.000738679
0.000751986
0.000751991
0.000738696
0.000752033
0.000738775
0.000738781
0.000752046
0.000752091
0.000738763
0.000749895
0.000749927
0.000749665
0.000723158
0.00072316
0.000723348
0.000723229
0.000738674
0.000751936
0.000749739
0.000740798
0.000751863
0.00073872
0.000740805
0.000752127
0.000738641
0.000738825
0.000749748
0.000752038
0.000741076
0.000751922
0.000740925
0.000738783
0.00075222
0.000752262
0.000738705
0.000738985
0.000739003
0.000703266
0.000716569
0.000716512
0.000703312
0.000716551
0.000703238
0.000703172
0.00071654
0.000716467
0.000703254
0.000714324
0.000714435
0.000714464
0.000687691
0.000687797
0.00068765
0.000687902
0.000703408
0.000716541
0.000714315
0.000705484
0.000716509
0.000703331
0.000705514
0.000716339
0.000703126
0.000703332
0.0007144
0.000716434
0.000705409
0.000716537
0.000705513
0.000703206
0.000716632
0.000716613
0.000703756
0.00070314
0.000703101
0.000667706
0.000681061
0.000681042
0.000667692
0.000680987
0.00066769
0.000667715
0.000681028
0.000680986
0.000667701
0.000678907
0.000678755
0.000678941
0.000652231
0.000652131
0.000652105
0.000652005
0.000667668
0.000680947
0.0006789
0.000669899
0.00068097
0.000667656
0.000669944
0.00068106
0.000667786
0.000667645
0.000678764
0.000680931
0.00066978
0.000680874
0.000669837
0.000667693
0.000680802
0.000680792
0.000667652
0.000667566
0.000667575
0.000632098
0.000645396
0.0006454
0.000632096
0.000645452
0.000632146
0.000632132
0.000645423
0.000645456
0.000632114
0.000643219
0.000643236
0.000643116
0.000616605
0.000616593
0.00061666
0.000616598
0.000632109
0.000645341
0.000643122
0.000634247
0.000645252
0.000632132
0.000634239
0.000645506
0.00063215
0.000632164
0.000643144
0.000645405
0.000634333
0.000645302
0.000634287
0.000632173
0.000645504
0.00064552
0.000632206
0.000632211
0.000632222
0.000596572
0.000609874
0.000609866
0.000596572
0.000609872
0.000596553
0.000596558
0.000609876
0.000609867
0.000596566
0.000607736
0.000607789
0.000607764
0.000581041
0.000581092
0.000581078
0.000581151
0.000596698
0.000609882
0.000607705
0.000598829
0.000609874
0.000596624
0.000598851
0.000609849
0.000596534
0.000596693
0.000607746
0.00060987
0.000598843
0.00060989
0.000598874
0.000596603
0.000609941
0.000609939
0.000596876
0.000596576
0.000596571
0.000560959
0.000574304
0.000574288
0.000560972
0.000574289
0.000560963
0.000560955
0.000574301
0.000574277
0.000560968
0.000572178
0.000572156
0.000572227
0.000545407
0.000545388
0.000545387
0.000545379
0.000560993
0.000574254
0.000572155
0.000563182
0.000574246
0.000560971
0.00056322
0.000574287
0.000560971
0.000560983
0.000572135
0.000574247
0.000563154
0.000574229
0.0005632
0.000560967
0.00057425
0.000574246
0.000561121
0.000560899
0.000560899
0.000525298
0.000538657
0.000538648
0.000525296
0.000538666
0.000525321
0.000525299
0.000538658
0.000538651
0.000525297
0.000536455
0.000536466
0.00053643
0.000509693
0.000509697
0.000509689
0.000509677
0.000525309
0.000538601
0.000536405
0.00052746
0.000538553
0.000525309
0.000527476
0.000538665
0.000525302
0.000525316
0.000536411
0.000538598
0.00052748
0.000538555
0.000527486
0.000525308
0.000538641
0.000538642
0.000525367
0.000525323
0.000525323
0.000489592
0.000502968
0.000502951
0.000489597
0.000502962
0.000489565
0.000489592
0.000502966
0.000502948
0.000489595
0.000500788
0.000500765
0.000500782
0.000474
0.00047399
0.000474
0.000474013
0.000489663
0.00050292
0.000500741
0.000491831
0.000502893
0.000489616
0.000491834
0.000502965
0.000489605
0.000489655
0.000500729
0.000502925
0.000491797
0.00050289
0.000491817
0.000489624
0.000502975
0.000502976
0.000489833
0.000489552
0.000489554
0.000453844
0.00046722
0.000467224
0.000453847
0.000467229
0.000453901
0.00045385
0.00046723
0.000467234
0.000453852
0.000465027
0.000465065
0.00046504
0.000438179
0.000438197
0.000438197
0.000438191
0.000453867
0.000467195
0.000465004
0.000456
0.000467177
0.000453875
0.000456037
0.000467236
0.000453847
0.000453884
0.000465028
0.000467198
0.000456058
0.000467183
0.000456068
0.000453867
0.000467216
0.000467221
0.000453919
0.000453891
0.000453891
0.000418122
0.000431529
0.000431482
0.000418147
0.00043153
0.000418088
0.000418106
0.000431513
0.000431466
0.000418133
0.000429285
0.00042925
0.000429286
0.000402513
0.000402504
0.000402488
0.000402505
0.000418174
0.000431455
0.000429244
0.000420348
0.000431394
0.000418135
0.000420336
0.0004315
0.000418139
0.000418147
0.000429226
0.000431444
0.000420277
0.000431388
0.000420303