/*--------------------------------*- C++ -*----------------------------------*\
| =========                 |                                                 |
| \\      /  F ield         | OpenFOAM: The Open Source CFD Toolbox           |
|  \\    /   O peration     | Version:  v2012                                 |
|   \\  /    A nd           | Website:  www.openfoam.com                      |
|    \\/     M anipulation  |                                                 |
\*---------------------------------------------------------------------------*/
FoamFile
{
    version     2.0;
    format      ascii;
    class       surfaceScalarField;
    location    "500";
    object      phi;
}
// * * * * * * * * * * * * * * * * * * * * * * * * * * * * * * * * * * * * * //

dimensions      [0 3 -1 0 0 0 0];
oriented        oriented;


internalField   nonuniform List<scalar> 
248808
(
-2.17266e-07
-2.15679e-07
1.88075e-07
1.90747e-07
0.0011911
-1.25199e-06
2.28404e-07
8.67555e-08
0.00114031
-2.57081e-07
1.21561e-06
2.20604e-07
8.5367e-07
-2.44191e-07
-9.00199e-07
1.95098e-07
-1.24634e-06
2.24694e-07
8.60798e-08
0.00113996
-2.56394e-07
1.21027e-06
2.20974e-07
8.54887e-07
-2.4557e-07
-8.98949e-07
1.99469e-07
1.27411e-06
1.23987e-06
-2.33224e-07
-2.38354e-07
0.000269461
-2.02436e-07
-2.0401e-07
-0.00119122
1.85391e-07
1.8462e-07
0.00119126
-0.00113989
-1.23594e-06
1.82353e-07
4.19097e-08
0.00113975
-2.39974e-07
1.22691e-06
2.32058e-07
8.57148e-07
-2.37548e-07
-8.94438e-07
2.0184e-07
-0.00113952
-1.22866e-06
1.81064e-07
3.26132e-08
0.00113938
-2.36484e-07
1.2247e-06
2.37345e-07
8.56494e-07
-2.41593e-07
-8.94788e-07
2.03535e-07
-0.000271361
1.27498e-06
1.24008e-06
-2.33909e-07
-2.39661e-07
0.00026932
-1.74182e-07
-1.75968e-07
-0.00119132
1.73231e-07
1.69132e-07
0.00119132
-0.00113936
-1.24057e-06
1.71176e-07
6.45367e-08
0.00113922
-2.44537e-07
1.22048e-06
2.29037e-07
8.59795e-07
-2.33561e-07
-8.8723e-07
2.0197e-07
-0.00113898
-1.24341e-06
1.85312e-07
9.11257e-08
0.00113883
-2.55108e-07
1.20668e-06
2.20237e-07
8.58952e-07
-2.36528e-07
-8.86806e-07
2.02477e-07
-0.000271231
1.26234e-06
1.22746e-06
-2.24113e-07
-2.2947e-07
0.000269195
-1.36204e-07
-1.32118e-07
-0.00119134
1.30815e-07
1.36962e-07
0.00119134
-0.0011388
-1.23199e-06
1.49516e-07
4.38555e-08
0.00113866
-2.39452e-07
1.22356e-06
2.29831e-07
8.6285e-07
-2.26918e-07
-8.81813e-07
2.06913e-07
-0.00113842
-1.21705e-06
1.33904e-07
1.56284e-08
0.00113829
-2.29752e-07
1.22563e-06
2.35511e-07
8.6219e-07
-2.29079e-07
-8.83262e-07
2.1192e-07
-0.000271109
1.26002e-06
1.22682e-06
-2.23151e-07
-2.27751e-07
0.000269073
-1.22941e-07
-1.23828e-07
-0.00119134
1.29789e-07
1.28945e-07
0.00119133
-0.00113826
-1.22606e-06
1.31052e-07
2.14299e-08
0.00113815
-2.30944e-07
1.22847e-06
2.39186e-07
8.60154e-07
-2.28121e-07
-8.80744e-07
2.03459e-07
-0.00113793
-1.22442e-06
1.35551e-07
3.84535e-08
0.0011378
-2.33447e-07
1.21976e-06
2.37545e-07
8.61476e-07
-2.29952e-07
-8.78445e-07
2.06529e-07
-0.000270971
1.26161e-06
1.2267e-06
-2.25054e-07
-2.30573e-07
0.000268939
-1.22233e-07
-1.21731e-07
-0.00119124
1.38781e-07
1.38958e-07
0.0011912
-0.00113781
-1.22875e-06
9.06736e-08
5.13416e-08
0.00113769
-2.42752e-07
1.21637e-06
2.18522e-07
8.73132e-07
-2.11116e-07
-8.66604e-07
2.18654e-07
-0.00113742
-1.21885e-06
8.68151e-08
3.03496e-08
0.00113731
-2.36091e-07
1.21793e-06
2.28613e-07
8.70844e-07
-2.16483e-07
-8.68409e-07
2.18849e-07
-0.00027088
1.24792e-06
1.2137e-06
-2.14611e-07
-2.19868e-07
0.000268853
-6.11671e-08
-6.10109e-08
-0.00119108
8.19204e-08
8.28254e-08
0.00119104
-0.0011373
-1.21595e-06
9.15e-08
1.10811e-08
0.00113717
-2.19716e-07
1.2328e-06
2.46162e-07
8.63682e-07
-2.20246e-07
-8.71557e-07
2.08061e-07
-0.00113695
-1.21515e-06
9.16942e-08
2.41845e-08
0.00113683
-2.28467e-07
1.22073e-06
2.3575e-07
8.66998e-07
-2.19206e-07
-8.68685e-07
2.1457e-07
-0.000270779
1.25391e-06
1.21951e-06
-2.18741e-07
-2.24116e-07
0.000268748
-6.92714e-08
-7.97257e-08
-0.00119092
1.06606e-07
9.05862e-08
0.00119088
-0.00113686
-1.21621e-06
5.31887e-08
1.35535e-09
0.00113677
-2.29008e-07
1.22634e-06
2.3307e-07
8.72844e-07
-2.08426e-07
-8.61374e-07
2.18018e-07
-0.00113646
-1.21809e-06
7.90048e-08
4.29912e-08
0.00113634
-2.35351e-07
1.21282e-06
2.26144e-07
8.70006e-07
-2.13399e-07
-8.62374e-07
2.16863e-07
-0.00027068
1.24323e-06
1.20559e-06
-2.08911e-07
-2.1639e-07
0.000268656
-3.49011e-08
-2.46226e-08
-0.0011907
5.44281e-08
6.87217e-08
0.00119064
-0.00113646
-1.21687e-06
5.56913e-08
2.60359e-08
0.00113635
-2.27186e-07
1.22371e-06
2.33315e-07
8.69434e-07
-2.09733e-07
-8.61278e-07
2.14411e-07
-0.00113604
-1.1925e-06
2.25893e-08
-5.43716e-08
0.00113597
-2.03762e-07
1.23889e-06
2.57627e-07
8.67247e-07
-2.15261e-07
-8.64597e-07
2.16813e-07
-0.000270606
1.24051e-06
1.21021e-06
-2.13151e-07
-2.15514e-07
0.000268584
-5.22814e-08
-4.51404e-08
-0.00119042
8.13656e-08
9.01448e-08
0.00119034
-0.00113604
-1.20864e-06
9.89939e-09
9.87244e-09
0.00113593
-2.22838e-07
1.22547e-06
2.308e-07
8.81149e-07
-1.96084e-07
-8.49479e-07
2.28466e-07
-0.00113575
-1.22343e-06
2.44421e-08
6.63807e-08
0.00113564
-2.49147e-07
1.19951e-06
2.07443e-07
8.86116e-07
-1.94215e-07
-8.42962e-07
2.32208e-07
-0.000270521
1.24088e-06
1.20777e-06
-2.1097e-07
-2.14941e-07
0.000268498
1.53235e-09
-2.52714e-09
-0.00119013
3.5513e-08
3.68577e-08
0.00119006
-0.00113562
-1.20591e-06
3.35435e-08
-1.47214e-08
0.00113553
-2.11471e-07
1.23519e-06
2.52755e-07
8.64667e-07
-2.11836e-07
-8.60033e-07
2.08744e-07
-0.00113529
-1.18133e-06
1.05656e-08
-7.35028e-08
0.0011352
-1.88209e-07
1.248e-06
2.7257e-07
8.64416e-07
-2.14821e-07
-8.62739e-07
2.14635e-07
-0.000270439
1.24126e-06
1.20574e-06
-2.10412e-07
-2.17171e-07
0.000268419
9.17514e-09
1.78205e-09
-0.00118982
4.32711e-08
2.26183e-08
0.00118974
-0.00113529
-1.21067e-06
-2.87446e-08
1.79282e-08
0.00113521
-2.33904e-07
1.21538e-06
2.13862e-07
8.90286e-07
-1.83423e-07
-8.38e-07
2.37882e-07
-0.00113493
-1.23669e-06
2.18451e-08
1.33728e-07
0.00113481
-2.72143e-07
1.17748e-06
1.78682e-07
8.93352e-07
-1.82799e-07
-8.30816e-07
2.37366e-07
-0.000270403
1.22679e-06
1.18926e-06
-1.95488e-07
-2.02312e-07
0.000268384
3.99613e-08
4.02089e-08
-0.00118955
-5.46346e-09
5.62223e-09
0.00118947
-0.00113499
-1.18122e-06
-5.01323e-09
-1.03504e-07
0.00113494
-1.79458e-07
1.25827e-06
2.82737e-07
8.56408e-07
-2.17192e-07
-8.65845e-07
2.04051e-07
-0.00113455
-1.13931e-06
-5.51426e-08
-2.34664e-07
0.00113454
-1.33371e-07
1.29072e-06
3.2588e-07
8.52097e-07
-2.2555e-07
-8.74629e-07
2.06628e-07
-0.000270292
1.24005e-06
1.20736e-06
-2.16166e-07
-2.2114e-07
0.000268281
-6.36094e-08
-5.52555e-08
-0.00118908
1.10994e-07
1.09003e-07
0.00118898
-0.00113472
-1.24551e-06
-8.36051e-08
1.88238e-07
0.00113458
-2.85509e-07
1.16818e-06
1.53159e-07
9.22421e-07
-1.47558e-07
-8.02604e-07
2.67576e-07
-0.00113439
-1.2752e-06
-4.48568e-08
2.93106e-07
0.00113425
-3.29019e-07
1.12786e-06
1.16342e-07
9.25086e-07
-1.46614e-07
-7.94194e-07
2.65548e-07
-0.000270376
1.20366e-06
1.17165e-06
-1.78833e-07
-1.80959e-07
0.00026836
2.53807e-07
2.54341e-07
-0.00118885
-2.28052e-07
-2.17147e-07
0.00118879
-0.00113421
-1.13967e-06
7.99854e-08
-2.75792e-07
0.00113418
-1.16327e-07
1.30805e-06
3.53707e-07
8.15033e-07
-2.56895e-07
-9.02757e-07
1.62282e-07
-0.00113383
-1.11051e-06
3.58203e-08
-3.3774e-07
0.0011338
-9.30152e-08
1.31875e-06
3.61917e-07
8.25637e-07
-2.48995e-07
-8.97813e-07
1.82197e-07
-0.000270165
1.26291e-06
1.22745e-06
-2.3004e-07
-2.37129e-07
0.000268142
-3.02933e-07
-3.12475e-07
-0.00118837
3.78955e-07
3.63432e-07
0.00118824
-0.00113426
-1.2413e-06
-2.77338e-07
1.54783e-07
0.00113424
-3.02712e-07
1.15501e-06
1.19194e-07
9.64773e-07
-1.0073e-07
-7.60911e-07
3.14691e-07
-0.00113387
-1.23867e-06
-2.07976e-07
1.3457e-07
0.00113388
-2.84845e-07
1.16519e-06
1.64367e-07
9.23475e-07
-1.4616e-07
-7.9289e-07
2.68043e-07
-0.000270202
1.19958e-06
1.16586e-06
-1.7926e-07
-1.84084e-07
0.000268199
5.8095e-07
6.20585e-07
-0.00118804
-5.71521e-07
-5.27739e-07
0.00118793
-0.00113375
-1.16584e-06
2.25932e-07
-1.08085e-07
0.0011336
-1.29583e-07
1.29186e-06
3.54424e-07
7.82325e-07
-2.87994e-07
-9.26996e-07
1.22571e-07
-0.00113364
-1.17618e-06
9.46635e-08
1.56042e-09
0.00113338
-1.98438e-07
1.22644e-06
2.30765e-07
8.78357e-07
-1.921e-07
-8.44922e-07
2.35842e-07
-0.000270151
1.22925e-06
1.19899e-06
-2.11066e-07
-2.12878e-07
0.000268146
-3.95849e-07
-6.09756e-07
-0.00118762
6.65483e-07
3.94821e-07
0.00118756
-0.00113367
-1.20193e-06
-4.6288e-07
3.472e-08
0.00113372
-2.801e-07
1.17408e-06
1.1833e-07
1.00123e-06
-6.18279e-08
-7.28507e-07
3.59227e-07
-0.00113262
-1.25533e-06
2.82275e-08
2.39958e-07
0.00113259
-2.44626e-07
1.18516e-06
2.61499e-07
8.11278e-07
-2.50055e-07
-8.78863e-07
1.40549e-07
-0.000270231
1.21331e-06
1.13156e-06
-1.54698e-07
-1.95385e-07
0.000268237
2.76667e-07
7.55038e-07
-0.00118724
-7.24247e-07
-1.23996e-07
0.00118705
-0.00113324
-1.22558e-06
4.30839e-07
6.32355e-08
0.00113301
-1.76821e-07
1.25195e-06
3.44132e-07
7.4454e-07
-3.17036e-07
-9.46583e-07
6.96666e-08
-0.00113359
-9.68471e-07
-6.17377e-07
-9.30269e-07
0.00113384
-3.08287e-08
1.39679e-06
3.29304e-07
1.00815e-06
-7.66612e-08
-7.44394e-07
3.81052e-07
-0.000270154
1.24348e-06
1.3383e-06
-3.00345e-07
-2.03983e-07
0.000268076
3.34588e-07
-3.25096e-07
-0.00118678
3.84984e-07
-4.39392e-07
0.00118683
-0.0011334
-9.92246e-07
-6.52132e-07
-9.08775e-07
0.00113379
-5.31605e-08
1.3852e-06
3.27214e-07
9.88118e-07
-8.75351e-08
-7.58172e-07
3.58861e-07
-0.00113294
-1.48942e-06
8.54619e-07
1.14273e-06
0.00113234
-4.96051e-07
9.63429e-07
2.97566e-08
7.45824e-07
-2.9875e-07
-9.13902e-07
6.46956e-08
-0.000269661
1.3032e-06
1.07253e-06
-1.35285e-07
-2.90845e-07
0.000267712
-3.63503e-07
2.11615e-07
-0.00118665
-1.4224e-07
5.6891e-07
0.00118638
-0.00113343
-1.54099e-06
2.37931e-07
1.58354e-06
0.00113275
-5.54933e-07
8.93898e-07
-7.36229e-08
8.88277e-07
-1.67362e-07
-7.93522e-07
2.09357e-07
-0.00113188
-8.70422e-07
-1.18091e-06
-1.07593e-06
0.00113241
1.05744e-07
1.50684e-06
4.83353e-07
9.9427e-07
-9.15793e-08
-7.79016e-07
3.80904e-07
-0.000270513
9.46198e-07
1.10549e-06
-1.37843e-07
-2.47619e-09
0.000268601
2.918e-07
2.58973e-07
-0.00118556
-2.23369e-07
-2.68227e-07
0.0011855
-0.00113157
-9.21353e-07
-1.3058e-07
-1.20889e-06
0.00113189
1.01811e-07
1.51366e-06
5.51876e-07
8.00627e-07
-2.67633e-07
-9.22998e-07
1.63835e-07
-0.00113345
-1.4588e-06
4.28522e-07
7.39094e-07
0.00113312
-5.27432e-07
9.42209e-07
-5.41221e-08
9.18636e-07
-1.32982e-07
-7.48138e-07
2.24317e-07
-0.000270229
1.48652e-06
1.4081e-06
-3.42468e-07
-3.7547e-07
0.000268052
3.216e-07
-2.55256e-07
-0.00118579
2.92675e-07
-3.73111e-07
0.0011858
-0.00113358
-1.19356e-06
-2.73009e-07
-1.81458e-07
0.00113377
-2.63613e-07
1.19294e-06
1.56799e-07
9.50357e-07
-1.10407e-07
-7.70426e-07
3.03223e-07
-0.0011315
-9.9288e-07
1.59617e-07
-5.48599e-07
0.00113135
6.49961e-08
1.43387e-06
5.12534e-07
7.35465e-07
-3.32929e-07
-9.96302e-07
1.07429e-07
-0.00026959
1.17306e-06
9.99982e-07
-6.38372e-08
-1.8533e-07
0.000267666
-1.74831e-07
4.53567e-07
-0.0011853
-3.63122e-07
3.05406e-07
0.00118508
-0.00113281
-1.31745e-06
2.73417e-08
7.15097e-07
0.00113237
-3.16866e-07
1.11499e-06
1.46779e-07
8.74078e-07
-1.89358e-07
-8.29228e-07
2.11712e-07
-0.00113238
-1.23517e-06
-7.18334e-07
3.97665e-08
0.00113274
-3.34023e-07
1.14494e-06
9.2833e-08
1.02278e-06
-4.52138e-08
-6.88451e-07
3.6503e-07
-0.000270313
1.07995e-06
1.2375e-06
-2.56351e-07
-1.01317e-07
0.000268353
2.51143e-07
2.84089e-08
-0.00118472
-3.60214e-08
-2.0782e-07
0.00118468
-0.00113192
-1.11588e-06
-1.59424e-07
-3.84984e-07
0.00113203
-1.3218e-07
1.29851e-06
3.0875e-07
8.76604e-07
-1.87527e-07
-8.3704e-07
2.25846e-07
-0.0011325
-1.2373e-06
2.40309e-07
2.25407e-07
0.00113217
-2.31513e-07
1.18878e-06
2.35569e-07
8.31166e-07
-2.29858e-07
-8.71131e-07
1.77324e-07
-0.000270251
1.31531e-06
1.19216e-06
-1.80419e-07
-2.63667e-07
0.000268188
1.19084e-07
5.82989e-08
-0.00118452
1.13532e-08
-8.22042e-08
0.00118441
-0.00113239
-1.17858e-06
-8.0728e-08
-1.50143e-07
0.00113241
-2.00604e-07
1.23304e-06
2.41948e-07
8.8431e-07
-1.77329e-07
-8.25278e-07
2.30678e-07
-0.00113169
-1.10257e-06
-1.37623e-07
-3.73144e-07
0.00113175
-1.25214e-07
1.29405e-06
3.06112e-07
8.76693e-07
-1.88423e-07
-8.40621e-07
2.34558e-07
-0.000269893
1.23408e-06
1.19336e-06
-2.04177e-07
-2.12643e-07
0.000267883
7.32032e-08
1.44751e-07
-0.00118402
-8.13865e-08
-1.326e-08
0.00118389
-0.00113226
-1.19816e-06
-1.68621e-07
6.2137e-08
0.00113221
-2.14862e-07
1.216e-06
2.27875e-07
8.89507e-07
-1.73814e-07
-8.22304e-07
2.36869e-07
-0.00113197
-1.22121e-06
-2.00988e-07
1.29234e-07
0.00113194
-2.57176e-07
1.1768e-06
1.8497e-07
9.10041e-07
-1.54515e-07
-7.98753e-07
2.57092e-07
-0.000270024
1.15973e-06
1.14365e-06
-1.74317e-07
-1.6402e-07
0.000268059
2.05155e-07
1.27503e-07
-0.00118361
-8.9213e-08
-1.7591e-07
0.00118355
-0.00113215
-1.18503e-06
-1.498e-07
-6.40776e-08
0.00113215
-2.0502e-07
1.23014e-06
2.40901e-07
8.88514e-07
-1.74307e-07
-8.19489e-07
2.32727e-07
-0.00113166
-1.18844e-06
-5.43168e-08
6.52752e-09
0.0011316
-2.04139e-07
1.22003e-06
2.45648e-07
8.66211e-07
-1.98043e-07
-8.40584e-07
2.1369e-07
-0.000270177
1.25001e-06
1.19307e-06
-1.9999e-07
-2.25153e-07
0.000268159
1.16812e-07
1.67102e-07
-0.00118337
-1.31969e-07
-8.31246e-08
0.0011833
-0.00113214
-1.17317e-06
-5.75402e-08
-1.07517e-07
0.00113211
-1.8971e-07
1.23985e-06
2.52658e-07
8.71496e-07
-1.9029e-07
-8.39176e-07
2.19589e-07
-0.00113163
-1.14791e-06
-1.24327e-07
-2.09197e-07
0.00113168
-1.72652e-07
1.2517e-06
2.66957e-07
8.76864e-07
-1.87599e-07
-8.34791e-07
2.29044e-07
-0.000270027
1.21543e-06
1.19882e-06
-2.09136e-07
-1.99527e-07
0.000268022
8.40062e-08
1.06004e-07
-0.00118301
-5.14919e-08
-1.45891e-08
0.00118288
-0.00113202
-1.19406e-06
-1.78977e-07
9.46041e-09
0.00113199
-2.13965e-07
1.2176e-06
2.2763e-07
8.95868e-07
-1.66402e-07
-8.14715e-07
2.42832e-07
-0.00113176
-1.19459e-06
-1.92463e-07
1.92894e-08
0.00113175
-2.21732e-07
1.2061e-06
2.20661e-07
9.00821e-07
-1.64471e-07
-8.09301e-07
2.4951e-07
-0.000270102
1.19026e-06
1.15918e-06
-1.80221e-07
-1.83494e-07
0.000268116
1.41828e-07
1.17474e-07
-0.00118251
-6.44938e-08
-9.08065e-08
0.00118241
-0.00113194
-1.18834e-06
-1.37966e-07
-3.44436e-08
0.00113192
-2.06263e-07
1.22614e-06
2.39034e-07
8.85992e-07
-1.75602e-07
-8.21494e-07
2.31022e-07
-0.00113162
-1.18584e-06
-1.16413e-07
-7.99022e-09
0.00113157
-2.08272e-07
1.21793e-06
2.36838e-07
8.83601e-07
-1.80168e-07
-8.23737e-07
2.31979e-07
-0.000270161
1.22439e-06
1.1826e-06
-1.94238e-07
-2.05661e-07
0.000268154
1.44933e-07
1.4675e-07
-0.00118216
-1.06899e-07
-1.10014e-07
0.00118209
-0.00113186
-1.17722e-06
-1.06523e-07
-8.47789e-08
0.00113185
-1.95576e-07
1.23454e-06
2.46044e-07
8.80856e-07
-1.80839e-07
-8.2887e-07
2.27704e-07
-0.00113148
-1.16837e-06
-1.10017e-07
-9.72358e-08
0.00113147
-1.91363e-07
1.23278e-06
2.50646e-07
8.80014e-07
-1.84501e-07
-8.29447e-07
2.29607e-07
-0.000270121
1.21735e-06
1.18429e-06
-1.96186e-07
-2.00213e-07
0.000268116
1.27296e-07
1.29289e-07
-0.00118184
-8.57892e-08
-8.42562e-08
0.00118176
-0.00113182
-1.18185e-06
-1.38483e-07
-5.83642e-08
0.00113181
-2.00259e-07
1.23023e-06
2.42152e-07
8.83746e-07
-1.78023e-07
-8.25703e-07
2.30574e-07
-0.00113146
-1.17965e-06
-1.37415e-07
-4.72677e-08
0.00113145
-2.05286e-07
1.2204e-06
2.36358e-07
8.85124e-07
-1.78693e-07
-8.23851e-07
2.34672e-07
-0.000270131
1.2058e-06
1.1721e-06
-1.89377e-07
-1.94105e-07
0.000268137
1.32546e-07
1.33907e-07
-0.00118149
-9.00939e-08
-8.78177e-08
0.0011814
-0.00113179
-1.19175e-06
-1.3436e-07
-2.48487e-08
0.00113178
-2.12331e-07
1.21956e-06
2.29722e-07
8.87354e-07
-1.74078e-07
-8.21313e-07
2.32883e-07
-0.00113143
-1.1804e-06
-1.40104e-07
-4.68671e-08
0.00113143
-2.03821e-07
1.22159e-06
2.39524e-07
8.85166e-07
-1.79484e-07
-8.23751e-07
2.33874e-07
-0.000270183
1.21749e-06
1.18365e-06
-1.96518e-07
-2.01649e-07
0.00026818
1.15837e-07
1.15884e-07
-0.00118116
-7.65042e-08
-7.8438e-08
0.00118108
-0.00113177
-1.17762e-06
-1.21626e-07
-7.78821e-08
0.00113177
-1.92709e-07
1.23611e-06
2.5091e-07
8.76108e-07
-1.86006e-07
-8.33791e-07
2.23222e-07
-0.00113142
-1.18008e-06
-1.15159e-07
-4.62149e-08
0.00113141
-2.04854e-07
1.22036e-06
2.37107e-07
8.797e-07
-1.8408e-07
-8.29381e-07
2.29252e-07
-0.000270179
1.2107e-06
1.17568e-06
-1.92282e-07
-1.97817e-07
0.000268183
1.55289e-07
1.47588e-07
-0.00118084
-1.0335e-07
-1.10295e-07
0.00118075
-0.00113176
-1.19022e-06
-1.38951e-07
-3.1896e-08
0.00113175
-2.13475e-07
1.21967e-06
2.27105e-07
8.91528e-07
-1.70293e-07
-8.17711e-07
2.3688e-07
-0.00113137
-1.1764e-06
-1.3931e-07
-6.32353e-08
0.00113137
-1.99301e-07
1.22582e-06
2.44041e-07
8.85133e-07
-1.8002e-07
-8.24455e-07
2.33953e-07
-0.000270229
1.21749e-06
1.18199e-06
-1.94568e-07
-2.01278e-07
0.000268225
8.53679e-08
9.81652e-08
-0.0011805
-6.24157e-08
-5.17898e-08
0.00118043
-0.00113171
-1.18342e-06
-1.05483e-07
-5.55324e-08
0.00113171
-1.98027e-07
1.2303e-06
2.45819e-07
8.73825e-07
-1.88105e-07
-8.36123e-07
2.20869e-07
-0.00113136
-1.18624e-06
-1.08532e-07
-2.72459e-08
0.00113136
-2.12782e-07
1.21288e-06
2.28129e-07
8.80274e-07
-1.83029e-07
-8.28623e-07
2.29685e-07
-0.000270214
1.21181e-06
1.18028e-06
-1.96305e-07
-1.98742e-07
0.000268217
1.495e-07
1.38423e-07
-0.00118022
-9.92322e-08
-1.07562e-07
0.00118014
-0.00113172
-1.18701e-06
-1.38171e-07
-4.61791e-08
0.00113172
-2.07684e-07
1.22466e-06
2.3464e-07
8.85679e-07
-1.75968e-07
-8.23546e-07
2.31276e-07
-0.00113134
-1.17271e-06
-1.37265e-07
-7.73642e-08
0.00113134
-1.92177e-07
1.23172e-06
2.52843e-07
8.79068e-07
-1.86553e-07
-8.30834e-07
2.28087e-07
-0.000270273
1.21536e-06
1.17831e-06
-1.92851e-07
-2.01168e-07
0.000268274
1.22274e-07
1.30162e-07
-0.00117987
-8.76686e-08
-8.37051e-08
0.00117979
-0.0011317
-1.18217e-06
-1.1768e-07
-5.8085e-08
0.00113169
-2.00928e-07
1.22893e-06
2.39465e-07
8.81879e-07
-1.80842e-07
-8.29285e-07
2.29072e-07
-0.00113135
-1.18821e-06
-1.10674e-07
-1.77077e-08
0.00113134
-2.1961e-07
1.20787e-06
2.18231e-07
8.86963e-07
-1.76547e-07
-8.22757e-07
2.36404e-07
-0.000270276
1.21582e-06
1.18326e-06
-1.97228e-07
-2.00265e-07
0.000268275
7.34792e-08
7.48566e-08
-0.00117963
-5.02962e-08
-4.58595e-08
0.00117957
-0.00113168
-1.19842e-06
-9.87119e-08
-1.45365e-08
0.00113169
-2.14955e-07
1.21675e-06
2.32519e-07
8.73255e-07
-1.87386e-07
-8.34378e-07
2.181e-07
-0.0011313
-1.17661e-06
-1.16143e-07
-7.32504e-08
0.00113132
-1.9055e-07
1.23126e-06
2.58302e-07
8.68333e-07
-1.96695e-07
-8.40654e-07
2.17037e-07
-0.0002703
1.21713e-06
1.18334e-06
-1.98602e-07
-2.04343e-07
0.000268303
1.79126e-07
1.7432e-07
-0.00117931
-1.24537e-07
-1.31445e-07
0.00117922
-0.0011317
-1.17136e-06
-1.45469e-07
-9.61804e-08
0.0011317
-1.92928e-07
1.23773e-06
2.43837e-07
8.87449e-07
-1.75716e-07
-8.25085e-07
2.34643e-07
-0.00113137
-1.18457e-06
-1.2509e-07
-2.84399e-08
0.00113136
-2.19241e-07
1.21008e-06
2.16202e-07
8.91711e-07
-1.72094e-07
-8.18526e-07
2.40732e-07
-0.00027034
1.21534e-06
1.17973e-06
-1.93785e-07
-1.99308e-07
0.000268338
6.53549e-08
6.37254e-08
-0.00117905
-4.01084e-08
-4.19168e-08
0.00117901
-0.00113171
-1.20182e-06
-9.06325e-08
1.63732e-09
0.0011317
-2.17329e-07
1.21322e-06
2.28886e-07
8.73847e-07
-1.87414e-07
-8.34584e-07
2.18957e-07
-0.00113131
-1.18002e-06
-1.03916e-07
-5.52481e-08
0.00113131
-1.93689e-07
1.22774e-06
2.54781e-07
8.68322e-07
-1.96869e-07
-8.41403e-07
2.17088e-07
-0.000270352
1.21434e-06
1.18055e-06
-1.96173e-07
-2.01589e-07
0.000268355
9.98926e-08
1.10169e-07
-0.00117876
-7.51945e-08
-6.57521e-08
0.0011787
-0.00113166
-1.18919e-06
-9.86845e-08
-4.70623e-08
0.00113167
-2.09698e-07
1.2216e-06
2.30876e-07
8.75515e-07
-1.82766e-07
-8.31966e-07
2.21011e-07
-0.00113133
-1.195e-06
-9.59946e-08
-1.03983e-08
0.00113134
-2.28267e-07
1.20119e-06
2.09581e-07
8.81079e-07
-1.77963e-07
-8.24497e-07
2.291e-07
-0.000270377
1.23285e-06
1.19878e-06
-2.09171e-07
-2.13857e-07
0.000268368
1.79539e-07
1.63154e-07
-0.00117858
-1.2042e-07
-1.35597e-07
0.0011785
-0.00113176
-1.16565e-06
-1.57865e-07
-1.02876e-07
0.00113176
-1.78286e-07
1.24517e-06
2.57453e-07
8.79597e-07
-1.79584e-07
-8.30432e-07
2.26794e-07
-0.00113137
-1.15431e-06
-1.48531e-07
-1.20782e-07
0.00113137
-1.66097e-07
1.24921e-06
2.72414e-07
8.73139e-07
-1.90647e-07
-8.3842e-07
2.23201e-07
-0.000270411
1.1848e-06
1.14902e-06
-1.68945e-07
-1.75779e-07
0.000268422
-1.15964e-08
1.60998e-08
-0.00117819
-1.09951e-08
1.51622e-08
0.00117819
-0.00113166
-1.23208e-06
-2.01576e-08
8.56724e-08
0.00113166
-2.56649e-07
1.1787e-06
1.89804e-07
8.61978e-07
-1.81443e-07
-8.29083e-07
2.01373e-07
-0.00113133
-1.22623e-06
-5.19396e-08
7.84944e-08
0.00113135
-2.6097e-07
1.17053e-06
1.82362e-07
8.70615e-07
-1.74219e-07
-8.19328e-07
2.13238e-07
-0.000270437
1.25711e-06
1.22946e-06
-2.33473e-07
-2.32818e-07
0.000268417
2.15751e-07
1.80577e-07
-0.00117815
-1.29039e-07
-1.70044e-07
0.00117806
-0.00113174
-1.14051e-06
-1.87569e-07
-1.789e-07
0.00113179
-1.50225e-07
1.25725e-06
2.64094e-07
8.71477e-07
-1.68119e-07
-8.28156e-07
2.15555e-07
-0.00113138
-1.13849e-06
-1.40146e-07
-1.41854e-07
0.00113139
-1.53104e-07
1.24548e-06
2.61817e-07
8.5697e-07
-1.79579e-07
-8.36152e-07
2.0631e-07
-0.00027046
1.18732e-06
1.13787e-06
-1.49448e-07
-1.65705e-07
0.00026845
9.54945e-07
9.92425e-07
-0.00117768
-8.67068e-07
-8.25303e-07
0.00117743
-0.00113208
-1.11944e-06
-9.50732e-07
-3.58913e-07
0.00113251
-1.44377e-07
1.3615e-06
3.05071e-07
1.00256e-06
-8.50272e-08
-7.28745e-07
2.87313e-07
-0.00113172
-1.10182e-06
-1.01177e-06
-4.13141e-07
0.0011322
-1.36302e-07
1.36346e-06
3.12412e-07
1.00854e-06
-8.24766e-08
-7.18319e-07
2.99325e-07
-0.000270584
1.14061e-06
1.11095e-06
-1.24553e-07
-1.15121e-07
0.000268572
5.45537e-06
5.44527e-06
-0.00116423
-1.16506e-05
-1.15609e-05
0.000283604
0.000285449
0.000285355
0.000285356
4.49469e-06
6.74042e-06
7.15729e-06
4.49553e-06
6.73697e-06
7.15646e-06
-0.00028066
5.40608e-06
-5.45449e-06
5.96506e-06
-3.41874e-06
0.000278162
-0.000280644
-5.45116e-06
5.40084e-06
-3.41658e-06
5.95888e-06
0.000278152
-0.000271553
-5.40433e-06
-5.42083e-06
5.76966e-06
5.75272e-06
0.000270856
1.27756e-06
1.24056e-06
-2.2991e-07
-2.37542e-07
0.000269467
-1.25312e-06
-1.2166e-06
0.000271398
-0.000269381
2.23025e-07
2.30337e-07
5.08816e-08
0.00113949
-2.47578e-07
1.26238e-06
2.43365e-07
8.50856e-07
-2.48698e-07
-9.03201e-07
1.92198e-07
-1.2926e-06
2.26702e-07
9.10903e-08
0.00113992
-2.65839e-07
1.25512e-06
2.28246e-07
8.59076e-07
-2.46766e-07
-9.05896e-07
1.97959e-07
0.00113907
1.88031e-07
-0.00113921
6.52774e-08
-1.27619e-06
2.23989e-07
-2.56012e-07
-8.92291e-07
2.06662e-07
-2.33031e-07
8.60774e-07
1.26809e-06
0.00113948
1.92561e-07
-0.00113963
4.75961e-08
-1.27793e-06
2.44293e-07
-2.47293e-07
-9.02771e-07
2.00719e-07
-2.44509e-07
8.60375e-07
-2.39178e-07
-2.41917e-07
0.000269486
-1.22844e-06
0.00027141
-0.000269383
2.33325e-07
2.35631e-07
5.1285e-08
0.0011406
-2.44903e-07
1.22515e-06
2.4094e-07
8.53715e-07
-2.51347e-07
-9.05891e-07
1.95108e-07
-1.2869e-06
2.23412e-07
9.07393e-08
0.00113959
-2.6515e-07
1.24992e-06
2.28615e-07
8.57436e-07
-2.45692e-07
-9.01936e-07
1.99334e-07
0.00114019
1.90216e-07
-0.00114033
6.2013e-08
-1.23833e-06
2.22069e-07
-2.52627e-07
-8.95372e-07
2.09202e-07
-2.36109e-07
8.63326e-07
1.26092e-06
0.00113914
1.99109e-07
-0.00113928
5.37383e-08
-1.27492e-06
2.43553e-07
-2.49808e-07
-9.00474e-07
1.98905e-07
-2.45719e-07
8.56589e-07
2.17652e-07
6.2816e-08
0.00113938
-2.49944e-07
1.25226e-06
2.32334e-07
8.53799e-07
-2.44595e-07
1.96253e-07
-9.00655e-07
1.93919e-07
-0.00114003
4.28029e-08
-1.2373e-06
2.36471e-07
-2.38473e-07
-8.97152e-07
1.98267e-07
8.54851e-07
-2.41569e-07
1.24671e-06
0.00113894
2.03601e-07
-0.00113909
7.77378e-08
-1.27543e-06
2.25653e-07
-2.54529e-07
-8.94992e-07
1.99045e-07
-2.38913e-07
8.5645e-07
-2.36187e-07
-2.43748e-07
0.000269452
-1.22135e-06
0.000271354
-0.000269339
2.29819e-07
2.36991e-07
2.16168e-07
6.33202e-08
0.00114049
-2.47368e-07
1.21776e-06
2.29861e-07
8.54028e-07
-2.47224e-07
1.99147e-07
-9.00632e-07
2.00778e-07
-0.00113966
4.8966e-08
-1.23423e-06
2.35818e-07
-2.40951e-07
-8.97588e-07
1.98902e-07
8.53759e-07
-2.45673e-07
1.21297e-06
0.00114006
2.05703e-07
-0.0011402
7.45049e-08
-1.24031e-06
2.23757e-07
-2.51206e-07
-8.95357e-07
2.0154e-07
-2.41996e-07
8.56355e-07
-0.000269356
2.25094e-07
2.29837e-07
1.28771e-06
1.25008e-06
-2.36347e-07
-2.44547e-07
0.000269341
-1.25874e-06
-1.22212e-06
0.000271221
-0.000269206
2.29452e-07
2.37077e-07
1.00922e-07
0.00113893
-2.69526e-07
1.24164e-06
2.13388e-07
8.61892e-07
-2.32085e-07
-8.8924e-07
2.04672e-07
-1.27565e-06
1.82994e-07
3.81629e-08
0.00113935
-2.4781e-07
1.26757e-06
2.40985e-07
8.62689e-07
-2.40639e-07
-9.00019e-07
2.04165e-07
0.00113845
1.90731e-07
-0.00113861
6.76425e-08
-1.27413e-06
2.41936e-07
-2.44958e-07
-8.92228e-07
1.95768e-07
-2.40042e-07
8.54612e-07
1.26059e-06
0.00113897
1.81108e-07
-0.0011391
5.34059e-08
-1.28094e-06
2.3595e-07
-2.5473e-07
-8.94039e-07
2.0411e-07
-2.37003e-07
8.64912e-07
-2.26313e-07
-2.28346e-07
0.000269353
-1.21822e-06
0.000271282
-0.000269258
2.25782e-07
2.29751e-07
1.00208e-07
0.00114004
-2.66409e-07
1.20483e-06
2.11179e-07
8.64473e-07
-2.35126e-07
-8.9229e-07
2.07252e-07
-1.26853e-06
1.81265e-07
2.87794e-08
0.00113901
-2.44382e-07
1.26524e-06
2.46203e-07
8.5941e-07
-2.41699e-07
-8.9751e-07
2.03405e-07
0.00113957
1.92102e-07
-0.00113973
6.16241e-08
-1.2365e-06
2.40005e-07
-2.41722e-07
-8.94881e-07
1.98715e-07
-2.42708e-07
8.57634e-07
1.24777e-06
0.00113861
1.89017e-07
-0.00113874
7.58288e-08
-1.28029e-06
2.254e-07
-2.62999e-07
-8.89965e-07
2.05512e-07
-2.34658e-07
8.63215e-07
2.00921e-07
7.64383e-08
0.0011388
-2.5318e-07
1.24708e-06
2.27634e-07
8.55965e-07
-2.39288e-07
1.97927e-07
-8.94323e-07
1.73182e-07
-0.00113949
6.77507e-08
-1.24319e-06
2.25435e-07
-2.48889e-07
-8.87397e-07
2.02605e-07
8.60577e-07
-2.33104e-07
1.2568e-06
0.00113839
1.65889e-07
-0.00113852
3.90763e-08
-1.26238e-06
2.37905e-07
-2.39739e-07
-8.89636e-07
2.02626e-07
-2.34421e-07
8.58853e-07
-2.22638e-07
-2.30076e-07
0.00026931
-1.20522e-06
0.000271224
-0.000269214
2.16966e-07
2.26304e-07
2.02537e-07
7.58551e-08
0.00113991
-2.501e-07
1.21307e-06
2.25446e-07
8.55858e-07
-2.42363e-07
2.00448e-07
-8.94697e-07
1.80546e-07
-0.00113912
8.99786e-08
-1.24269e-06
2.14847e-07
-2.57219e-07
-8.85898e-07
2.06913e-07
8.61808e-07
-2.33254e-07
1.22281e-06
0.0011395
1.66751e-07
-0.00113964
3.33244e-08
-1.2276e-06
2.35883e-07
-2.36647e-07
-8.89562e-07
2.05687e-07
-2.36989e-07
8.59291e-07
-0.000269223
2.33257e-07
2.38513e-07
1.26503e-06
1.22725e-06
-2.19262e-07
-2.27262e-07
0.000269175
-1.26009e-06
-1.22187e-06
0.000271127
-0.000269107
2.27036e-07
2.35683e-07
4.16495e-08
0.00113831
-2.36574e-07
1.26483e-06
2.46331e-07
8.54511e-07
-2.38419e-07
-8.92569e-07
1.98098e-07
-1.2789e-06
1.78262e-07
5.70325e-08
0.00113883
-2.51205e-07
1.262e-06
2.38464e-07
8.64059e-07
-2.37516e-07
-8.94122e-07
2.03568e-07
0.00113795
1.38578e-07
-0.00113806
2.31531e-08
-1.26476e-06
2.35589e-07
-2.44973e-07
-8.82803e-07
2.07808e-07
-2.26697e-07
8.63144e-07
1.26252e-06
0.0011384
1.50442e-07
-0.00113854
5.38874e-08
-1.27405e-06
2.36842e-07
-2.49133e-07
-8.88513e-07
2.09636e-07
-2.30718e-07
8.68293e-07
-2.30303e-07
-2.31144e-07
0.000269224
-1.2247e-06
0.000271147
-0.000269124
2.31734e-07
2.3215e-07
3.50765e-08
0.00113943
-2.33188e-07
1.22834e-06
2.4449e-07
8.57483e-07
-2.41109e-07
-8.9519e-07
2.01e-07
-1.28163e-06
1.93022e-07
8.37256e-08
0.00113846
-2.61729e-07
1.24829e-06
2.29643e-07
8.60422e-07
-2.37952e-07
-8.91073e-07
2.01253e-07
0.00113907
1.36861e-07
-0.00113918
2.97568e-08
-1.22845e-06
2.31789e-07
-2.43276e-07
-8.85479e-07
2.11063e-07
-2.29135e-07
8.66148e-07
1.26771e-06
0.00113804
1.38159e-07
-0.00113817
2.27777e-08
-1.25872e-06
2.50394e-07
-2.34964e-07
-8.88275e-07
2.08455e-07
-2.33267e-07
8.63072e-07
1.62044e-07
4.2657e-08
0.00113826
-2.41664e-07
1.25443e-06
2.33956e-07
8.59583e-07
-2.32221e-07
2.03911e-07
-8.88032e-07
1.55575e-07
-0.00113893
4.2971e-08
-1.23213e-06
2.3106e-07
-2.38645e-07
-8.84108e-07
2.05672e-07
8.61388e-07
-2.29073e-07
1.25298e-06
0.00113787
1.52553e-07
-0.001138
4.18772e-08
-1.26333e-06
2.34861e-07
-2.42671e-07
-8.83151e-07
2.05121e-07
-2.29288e-07
8.62135e-07
-2.34867e-07
-2.4068e-07
0.000269174
-1.2301e-06
0.000271097
-0.00026908
2.37675e-07
2.42936e-07
1.63038e-07
3.62383e-08
0.00113937
-2.38441e-07
1.22054e-06
2.32027e-07
8.60091e-07
-2.34714e-07
2.06991e-07
-8.87822e-07
1.44495e-07
-0.00113855
1.20144e-08
-1.21652e-06
2.44777e-07
-2.2431e-07
-8.86793e-07
2.06846e-07
8.58697e-07
-2.34679e-07
1.2178e-06
0.00113898
1.51612e-07
-0.00113912
4.83028e-08
-1.22956e-06
2.31301e-07
-2.40828e-07
-8.833e-07
2.08044e-07
-2.31984e-07
8.62258e-07
-0.000269104
2.30265e-07
2.36008e-07
1.26651e-06
1.23089e-06
-2.23446e-07
-2.30108e-07
0.000269083
-1.25823e-06
-1.22101e-06
0.000271007
-0.000268992
2.28539e-07
2.36376e-07
3.06519e-08
0.00113784
-2.45811e-07
1.25832e-06
2.35698e-07
8.64544e-07
-2.25438e-07
-8.79896e-07
2.07733e-07
-1.27429e-06
1.42669e-07
5.45447e-08
0.00113826
-2.50079e-07
1.26125e-06
2.35738e-07
8.69872e-07
-2.28226e-07
-8.85793e-07
2.10979e-07
0.00113746
1.37296e-07
-0.00113759
3.94219e-08
-1.26493e-06
2.37704e-07
-2.42297e-07
-8.80177e-07
2.05183e-07
-2.27029e-07
8.61663e-07
1.26192e-06
0.00113787
1.39996e-07
-0.001138
5.05157e-08
-1.27253e-06
2.39534e-07
-2.46969e-07
-8.86361e-07
2.05841e-07
-2.30699e-07
8.65785e-07
-2.23592e-07
-2.27943e-07
0.000269092
-1.22286e-06
0.000271022
-0.000268999
2.30044e-07
2.31954e-07
4.00584e-08
0.00113895
-2.44767e-07
1.21948e-06
2.31374e-07
8.68002e-07
-2.27478e-07
-8.82198e-07
2.11393e-07
-1.25955e-06
1.25771e-07
2.63449e-08
0.00113791
-2.40487e-07
1.26322e-06
2.41332e-07
8.66734e-07
-2.2737e-07
-8.8424e-07
2.1356e-07
0.00113857
1.33847e-07
-0.0011387
3.99065e-08
-1.22823e-06
2.354e-07
-2.39721e-07
-8.82219e-07
2.08248e-07
-2.29335e-07
8.64988e-07
1.25256e-06
0.00113755
1.38187e-07
-0.00113768
5.91339e-08
-1.27178e-06
2.35919e-07
-2.52765e-07
-8.80078e-07
2.07461e-07
-2.28283e-07
8.66025e-07
1.4525e-07
3.89842e-08
0.00113773
-2.39022e-07
1.2545e-06
2.35962e-07
8.63512e-07
-2.27116e-07
2.07298e-07
-8.81148e-07
1.42923e-07
-0.00113839
4.23218e-08
-1.2315e-06
2.32294e-07
-2.37726e-07