/*--------------------------------*- C++ -*----------------------------------*\
| =========                 |                                                 |
| \\      /  F ield         | OpenFOAM: The Open Source CFD Toolbox           |
|  \\    /   O peration     | Version:  v2012                                 |
|   \\  /    A nd           | Website:  www.openfoam.com                      |
|    \\/     M anipulation  |                                                 |
\*---------------------------------------------------------------------------*/
FoamFile
{
    version     2.0;
    format      ascii;
    class       volVectorField;
    location    "500";
    object      U;
}
// * * * * * * * * * * * * * * * * * * * * * * * * * * * * * * * * * * * * * //

dimensions      [0 1 -1 0 0 0 0];


internalField   nonuniform List<vector> 
85864
(
(2.37555e-05 2.39516e-05 0.113152)
(-1.75723e-05 1.2005e-05 0.108267)
(1.19268e-05 -1.71443e-05 0.108268)
(-4.71284e-05 -4.70485e-05 0.104718)
(2.26931e-05 2.25765e-05 0.113168)
(-1.36545e-05 6.77343e-06 0.108213)
(5.24249e-06 -1.33824e-05 0.108213)
(-4.71578e-05 -4.73767e-05 0.104665)
(2.07011e-05 2.04169e-05 0.113176)
(-1.22094e-05 8.71333e-06 0.108163)
(1.18971e-05 -1.3369e-05 0.108161)
(-4.25996e-05 -4.26875e-05 0.104617)
(1.60534e-05 1.65055e-05 0.113178)
(-9.97733e-06 6.32413e-06 0.10811)
(3.41344e-06 -9.14389e-06 0.108108)
(-4.24735e-05 -4.217e-05 0.104572)
(1.54961e-05 1.54121e-05 0.113177)
(-8.55703e-06 3.5358e-06 0.10806)
(5.27997e-06 -8.70061e-06 0.108062)
(-4.28585e-05 -4.29469e-05 0.10452)
(1.5694e-05 1.57142e-05 0.113166)
(-5.13543e-06 7.4711e-06 0.108017)
(4.56034e-06 -4.62429e-06 0.108015)
(-3.79882e-05 -3.80333e-05 0.104487)
(9.04136e-06 9.07096e-06 0.113151)
(-4.69224e-06 1.28098e-06 0.107968)
(3.41801e-06 -4.8822e-06 0.10797)
(-3.99295e-05 -3.99342e-05 0.104449)
(1.16419e-05 1.04146e-05 0.113136)
(-1.8074e-06 1.4005e-06 0.107928)
(5.52513e-06 -3.55431e-06 0.107922)
(-3.52394e-05 -3.62505e-05 0.104413)
(5.36182e-06 6.52104e-06 0.113115)
(-2.06024e-06 3.36355e-06 0.10789)
(-5.84187e-06 4.56751e-07 0.107885)
(-3.70466e-05 -3.58562e-05 0.104386)
(8.09652e-06 8.85161e-06 0.113086)
(2.23336e-06 1.83841e-06 0.10785)
(9.19535e-06 1.01188e-06 0.107856)
(-3.63476e-05 -3.5763e-05 0.104354)
(2.82233e-06 2.67267e-06 0.11306)
(8.42714e-08 -2.23109e-06 0.107811)
(-9.44348e-06 1.86427e-06 0.107813)
(-3.51082e-05 -3.57248e-05 0.104324)
(3.06291e-06 1.79944e-06 0.11303)
(5.28862e-06 3.58051e-06 0.10778)
(1.65063e-05 2.18524e-06 0.107778)
(-2.93546e-05 -3.01398e-05 0.104312)
(-1.98027e-06 -1.47423e-06 0.113004)
(2.1273e-06 -1.27246e-05 0.107753)
(-2.82764e-05 5.37657e-06 0.107746)
(-3.68234e-05 -3.67475e-05 0.104271)
(9.32756e-06 9.68971e-06 0.112957)
(1.11241e-05 2.18078e-05 0.107724)
(3.46498e-05 8.2657e-06 0.107727)
(-2.2386e-05 -2.10617e-05 0.104304)
(-2.4776e-05 -2.44314e-05 0.11294)
(-5.41419e-06 -3.21435e-05 0.107678)
(-3.8336e-05 -1.87929e-06 0.107676)
(-4.35551e-05 -4.43899e-05 0.104221)
(3.6769e-05 3.59409e-05 0.112887)
(2.62764e-05 2.21761e-05 0.107687)
(1.80453e-05 1.83515e-05 0.107683)
(-2.07836e-05 -2.0521e-05 0.104241)
(-6.28018e-05 -5.94861e-05 0.112861)
(-1.7216e-05 -2.03994e-05 0.107628)
(-1.09635e-06 -3.13273e-06 0.10765)
(-3.51312e-05 -3.34748e-05 0.104221)
(6.81295e-05 4.61994e-05 0.112821)
(4.05556e-05 1.18245e-05 0.107635)
(1.54853e-05 -2.64405e-06 0.107557)
(-1.05534e-05 -2.66717e-05 0.104254)
(-7.80359e-05 -2.84303e-05 0.11278)
(-3.21291e-05 -3.60116e-06 0.107575)
(-7.98355e-05 5.20532e-05 0.107675)
(-7.59108e-05 -3.28933e-05 0.104212)
(3.57663e-05 -3.21272e-05 0.112746)
(5.1863e-05 -8.07975e-05 0.107626)
(0.000104768 -5.93869e-05 0.107561)
(1.65571e-06 -6.13078e-05 0.104045)
(-1.61092e-05 4.19921e-05 0.112722)
(-1.04424e-05 0.000142648 0.107576)
(-0.000122851 8.74701e-05 0.107517)
(1.49346e-06 5.95215e-05 0.104382)
(-2.58346e-05 -2.71194e-05 0.112623)
(7.69561e-06 -0.000119307 0.107438)
(0.000100552 -2.64943e-05 0.107634)
(-0.00010657 -0.000111732 0.104222)
(2.57064e-05 -3.38857e-05 0.112654)
(2.19721e-05 -4.19143e-06 0.107638)
(-7.93987e-05 -1.15082e-05 0.107443)
(3.90304e-05 -1.54684e-05 0.104026)
(-4.06618e-05 1.98733e-05 0.112593)
(4.31762e-06 5.40562e-05 0.107525)
(1.40317e-05 5.90097e-05 0.107563)
(-5.22021e-05 1.65104e-05 0.104298)
(-4.50206e-06 -2.16004e-05 0.112547)
(1.26268e-05 -3.58551e-05 0.107467)
(1.82842e-05 -1.71554e-05 0.107536)
(-2.85907e-05 -5.91601e-05 0.104253)
(-2.05822e-06 -1.06488e-05 0.112525)
(7.97772e-06 -1.10229e-05 0.10751)
(-3.72984e-05 1.29585e-05 0.107477)
(-2.95588e-05 -3.29531e-05 0.104127)
(-1.24915e-05 -5.77286e-06 0.112476)
(1.55962e-05 8.995e-07 0.107493)
(1.178e-05 1.86311e-05 0.107502)
(-1.61538e-05 -8.8871e-06 0.104187)
(-1.26322e-05 -2.01076e-05 0.112441)
(1.33123e-05 -6.62926e-06 0.107486)
(-2.55266e-06 5.78928e-06 0.107469)
(-3.08557e-05 -3.92357e-05 0.104236)
(-1.53954e-05 -1.08401e-05 0.112418)
(5.67266e-06 -1.10201e-05 0.107483)
(-1.99895e-05 1.04546e-05 0.107473)
(-3.28312e-05 -2.67234e-05 0.104181)
(-8.97509e-06 -6.0335e-06 0.112381)
(1.64083e-05 -1.72079e-06 0.107472)
(3.95595e-07 1.71365e-05 0.107483)
(-1.99673e-05 -1.87655e-05 0.104214)
(-1.01685e-05 -1.26092e-05 0.112334)
(1.22371e-05 -4.63381e-06 0.107464)
(-2.73453e-06 1.08372e-05 0.107467)
(-2.75421e-05 -3.02329e-05 0.104233)
(-1.37216e-05 -1.38453e-05 0.112303)
(9.90424e-06 -9.14597e-06 0.107457)
(-1.06519e-05 1.02661e-05 0.107455)
(-2.75641e-05 -2.71368e-05 0.104218)
(-1.18633e-05 -1.167e-05 0.112272)
(1.23675e-05 -7.47103e-06 0.107454)
(-5.9312e-06 1.23034e-05 0.107453)
(-2.41359e-05 -2.38993e-05 0.104225)
(-1.24179e-05 -1.22412e-05 0.112239)
(1.21455e-05 -3.22968e-06 0.107451)
(-5.97918e-06 1.25058e-05 0.107451)
(-2.76818e-05 -2.76318e-05 0.104244)
(-1.07479e-05 -1.08342e-05 0.112207)
(1.02907e-05 -9.60916e-06 0.107449)
(-5.7257e-06 9.99452e-06 0.10745)
(-2.54314e-05 -2.55519e-05 0.104243)
(-1.3864e-05 -1.45559e-05 0.112177)
(1.28122e-05 -3.54154e-06 0.107449)
(-7.83676e-06 1.26593e-05 0.107445)
(-2.67925e-05 -2.74369e-05 0.104262)
(-8.84732e-06 -7.74339e-06 0.112146)
(8.96423e-06 -7.23786e-06 0.107444)
(-3.0853e-06 9.39553e-06 0.107445)
(-2.7145e-05 -2.59509e-05 0.104257)
(-1.34905e-05 -1.43812e-05 0.11212)
(1.21991e-05 -5.51635e-06 0.107445)
(-9.9993e-06 1.19383e-05 0.107443)
(-2.57004e-05 -2.6963e-05 0.10428)
(-1.17856e-05 -1.12489e-05 0.112087)
(1.04748e-05 -6.888e-06 0.107444)
(-1.4336e-06 1.01107e-05 0.107444)
(-2.78711e-05 -2.69928e-05 0.104281)
(-7.49181e-06 -7.21127e-06 0.112066)
(8.27816e-06 -2.61103e-06 0.107443)
(-9.85338e-06 9.46624e-06 0.107441)
(-2.7927e-05 -2.80858e-05 0.104291)
(-1.63049e-05 -1.6853e-05 0.112035)
(1.28628e-05 -1.049e-05 0.107445)
(-2.39852e-06 1.14858e-05 0.107447)
(-2.62437e-05 -2.63516e-05 0.104306)
(-6.18132e-06 -6.37664e-06 0.112015)
(7.71333e-06 -9.97742e-07 0.107446)
(-8.29016e-06 8.61983e-06 0.107442)
(-2.71333e-05 -2.7304e-05 0.104312)
(-1.03225e-05 -9.36147e-06 0.111988)
(8.54143e-06 -4.40254e-06 0.107444)
(5.90533e-07 8.40651e-06 0.107446)
(-3.27872e-05 -3.24088e-05 0.104319)
(-1.60896e-05 -1.75887e-05 0.111976)
(1.31979e-05 -1.35024e-05 0.107455)
(-1.64237e-05 1.23134e-05 0.107452)
(-1.53639e-05 -1.6261e-05 0.104337)
(-1.72076e-06 7.87148e-07 0.111946)
(1.47287e-06 1.14091e-05 0.107446)
(1.16569e-05 4.28245e-06 0.10745)
(-4.4201e-05 -4.15017e-05 0.104342)
(-1.79023e-05 -2.11528e-05 0.111948)
(1.26813e-05 -1.86559e-05 0.107461)
(-1.65882e-05 8.13814e-06 0.107457)
(-8.76259e-06 -1.34853e-05 0.104361)
(-1.85568e-05 -1.571e-05 0.111932)
(1.99985e-06 7.65047e-06 0.107467)
(4.14134e-06 6.17207e-06 0.107466)
(-2.5073e-05 -2.02865e-05 0.104413)
(-2.77566e-05 -2.91859e-05 0.112012)
(9.56804e-05 -5.47926e-05 0.107737)
(-5.0769e-05 9.41357e-05 0.107741)
(4.96809e-05 4.79178e-05 0.104771)
(4.67261e-05 4.68004e-05 0.104718)
(-4.2207e-05 -4.24281e-05 0.104843)
(7.3362e-06 1.67444e-05 0.108266)
(-1.23051e-05 1.75138e-05 0.108265)
(9.91125e-06 1.41019e-05 0.108228)
(-6.84262e-06 1.45539e-05 0.108223)
(-4.9623e-05 4.94364e-05 0.104718)
(4.58647e-05 -4.59097e-05 0.104836)
(1.65961e-05 7.34855e-06 0.108268)
(1.71568e-05 -1.22595e-05 0.108266)
(1.42579e-05 9.62447e-06 0.108229)
(1.50297e-05 -7.36689e-06 0.108222)
(-1.66407e-05 -9.11436e-06 0.108265)
(-1.44924e-05 6.50245e-06 0.108226)
(-1.53214e-05 -1.06309e-05 0.108224)
(4.94003e-05 -4.95342e-05 0.10472)
(-4.53678e-05 4.52619e-05 0.104834)
(-9.13241e-06 -1.65084e-05 0.108267)
(7.04718e-06 -1.50349e-05 0.108226)
(-1.03507e-05 -1.54645e-05 0.108226)
(4.23269e-05 4.20857e-05 0.104835)
(4.96653e-05 4.94587e-05 0.104672)
(-4.4895e-05 -4.50021e-05 0.104773)
(1.39808e-05 1.49068e-05 0.108214)
(-6.55889e-06 1.37502e-05 0.10821)
(8.19828e-06 1.35663e-05 0.108169)
(-8.25561e-06 1.3098e-05 0.108174)
(-4.355e-05 4.36016e-05 0.104667)
(4.28053e-05 -4.20394e-05 0.104786)
(1.50449e-05 1.38285e-05 0.108215)
(1.34024e-05 -5.00974e-06 0.108209)
(1.35357e-05 7.82271e-06 0.108171)
(1.37752e-05 -1.12227e-05 0.108172)
(-1.50555e-05 -1.03369e-05 0.108211)
(-1.25059e-05 9.32601e-06 0.108176)
(-1.19719e-05 -5.91887e-06 0.108171)
(4.33446e-05 -4.33908e-05 0.104665)
(-3.94348e-05 4.02978e-05 0.104783)
(-1.01941e-05 -1.51946e-05 0.108212)
(1.22834e-05 -1.31152e-05 0.108174)
(-5.57218e-06 -1.18781e-05 0.108173)
(4.56847e-05 4.56287e-05 0.104783)
(4.16626e-05 4.15053e-05 0.104607)
(-4.41153e-05 -4.37511e-05 0.104734)
(5.46404e-06 1.25023e-05 0.108155)
(-8.11118e-06 1.28255e-05 0.108161)
(4.61059e-06 9.60016e-06 0.10812)
(-7.02667e-06 1.01852e-05 0.10812)
(-4.48792e-05 4.54977e-05 0.104618)
(4.36175e-05 -4.43621e-05 0.104732)
(1.24988e-05 5.04936e-06 0.108156)
(1.40459e-05 -1.12934e-05 0.108158)
(9.4588e-06 5.08917e-06 0.108121)
(9.30404e-06 -3.06407e-06 0.108118)
(-1.17943e-05 -6.68865e-06 0.108158)
(-1.05964e-05 6.10694e-06 0.108123)
(-1.03909e-05 -6.04251e-06 0.108122)
(4.85495e-05 -4.7878e-05 0.104615)
(-4.83924e-05 4.75396e-05 0.104731)
(-6.29955e-06 -1.16985e-05 0.10816)
(2.12766e-06 -9.87192e-06 0.108121)
(-6.47813e-06 -1.03596e-05 0.108124)
(4.37474e-05 4.39714e-05 0.104734)
(4.29579e-05 4.34091e-05 0.104573)
(-4.40668e-05 -4.40143e-05 0.104687)
(5.46897e-06 9.2127e-06 0.108109)
(-7.23945e-06 9.41608e-06 0.108107)
(5.83985e-06 9.23763e-06 0.108073)
(-6.91584e-06 9.53335e-06 0.108069)
(-4.32507e-05 4.24052e-05 0.104568)
(4.35681e-05 -4.37877e-05 0.104682)
(8.86949e-06 6.20648e-06 0.108111)
(8.42512e-06 -4.35778e-06 0.108105)
(8.94006e-06 5.85123e-06 0.108075)
(9.2311e-06 -7.95122e-06 0.108072)
(-9.60362e-06 -5.68892e-06 0.108109)
(-9.57426e-06 6.33191e-06 0.108072)
(-9.64089e-06 -8.42913e-06 0.10807)
(3.87484e-05 -3.96865e-05 0.10457)
(-4.2056e-05 4.19809e-05 0.104685)
(-6.37112e-06 -9.41796e-06 0.108111)
(7.36587e-06 -9.0343e-06 0.108075)
(-8.48204e-06 -9.31938e-06 0.108071)
(4.16205e-05 4.17523e-05 0.10468)
(4.07949e-05 4.06094e-05 0.104528)
(-4.1109e-05 -4.13402e-05 0.104641)
(3.76079e-06 7.8581e-06 0.108062)
(-4.11793e-06 8.54553e-06 0.108057)
(8.66413e-06 6.66001e-06 0.108024)
(-1.89431e-06 4.88942e-06 0.108025)
(-4.10179e-05 4.08002e-05 0.104523)
(4.61455e-05 -4.55023e-05 0.10465)
(7.90966e-06 3.23435e-06 0.108063)
(8.81443e-06 -5.84097e-06 0.108059)
(6.87452e-06 8.30084e-06 0.108026)
(5.56035e-06 -2.30191e-06 0.108023)
(-8.97261e-06 -6.63977e-06 0.108057)
(-4.65734e-06 2.86153e-06 0.108028)
(-5.80265e-06 -1.80243e-06 0.108021)
(4.20152e-05 -4.21517e-05 0.104526)
(-4.52576e-05 4.57714e-05 0.104644)
(-6.18209e-06 -8.95466e-06 0.108058)
(3.28661e-06 -5.52313e-06 0.108025)
(-1.44128e-06 -5.9589e-06 0.108023)
(4.70767e-05 4.68432e-05 0.104642)
(4.39584e-05 4.39407e-05 0.104483)
(-5.01131e-05 -4.98882e-05 0.104599)
(9.57934e-06 7.41949e-06 0.108011)
(-5.9334e-06 5.67167e-06 0.108015)
(-2.4879e-06 3.91424e-06 0.107977)
(-5.34086e-06 6.0447e-06 0.107978)
(-4.00686e-05 4.08585e-05 0.104493)
(4.40447e-05 -4.40895e-05 0.104595)
(7.31071e-06 9.82228e-06 0.108013)
(5.1727e-06 -3.03613e-06 0.108012)
(3.70102e-06 -2.13844e-06 0.107978)
(5.54172e-06 -4.95851e-06 0.107979)
(-5.00983e-06 -2.28169e-06 0.10801)
(-5.60387e-06 5.1314e-06 0.107981)
(-4.72528e-06 -5.24655e-06 0.107981)
(3.9859e-05 -3.91381e-05 0.104488)
(-4.39186e-05 4.38842e-05 0.104601)
(-2.49908e-06 -4.88662e-06 0.108012)
(4.71453e-06 -5.06525e-06 0.107981)
(-5.57578e-06 -4.56133e-06 0.107982)
(4.28122e-05 4.29966e-05 0.104603)
(3.27949e-05 3.28018e-05 0.104449)
(-3.90864e-05 -4.01084e-05 0.104567)
(-2.37323e-06 2.754e-06 0.107967)
(-2.43812e-06 4.59576e-06 0.107965)
(7.60669e-06 2.91049e-06 0.107939)
(-1.48718e-06 2.10723e-06 0.107933)
(-3.74443e-05 3.69676e-05 0.104442)
(4.46721e-05 -4.52794e-05 0.104566)
(2.74385e-06 -2.44822e-06 0.107968)
(4.72255e-06 -4.57547e-06 0.107967)
(3.42493e-06 6.12157e-06 0.10794)
(2.88665e-06 -5.25226e-06 0.107931)
(-5.1314e-06 -5.44913e-06 0.107969)
(-2.83027e-06 8.64314e-07 0.107937)
(-2.63213e-06 -1.94926e-06 0.107935)
(3.85598e-05 -3.90858e-05 0.104448)
(-4.29767e-05 4.24416e-05 0.104557)
(-5.37288e-06 -5.11962e-06 0.10797)
(4.64853e-06 -3.59948e-06 0.107934)
(-4.83352e-07 -3.11321e-06 0.107936)
(4.65433e-05 4.55652e-05 0.104562)
(4.18509e-05 4.07815e-05 0.104416)
(-4.85074e-05 -4.76854e-05 0.104533)
(6.11914e-06 2.79882e-06 0.107928)
(-1.25308e-06 1.54665e-06 0.107925)
(-1.93895e-06 1.56236e-06 0.107895)
(-3.21537e-06 2.28085e-06 0.107897)
(-3.77645e-05 3.74535e-05 0.104417)
(4.44363e-05 -4.40041e-05 0.104534)
(3.50127e-06 4.4123e-06 0.10793)
(3.3995e-06 -5.36709e-06 0.107919)
(1.40731e-06 -1.0165e-06 0.107897)
(1.94581e-06 2.39836e-06 0.10789)
(-1.77025e-06 -1.80659e-06 0.107924)
(-1.61678e-06 3.47681e-06 0.1079)
(-1.33823e-06 -1.06452e-06 0.107896)
(3.95019e-05 -3.97135e-05 0.104406)
(-4.8391e-05 4.87628e-05 0.104527)
(-1.28251e-07 -2.4215e-06 0.107926)
(-2.12707e-06 -1.32359e-06 0.107893)
(-1.98731e-06 -1.11258e-06 0.107897)
(4.3868e-05 4.46456e-05 0.104533)
(3.26349e-05 3.38762e-05 0.104387)
(-4.09817e-05 -3.99854e-05 0.104501)
(-3.19125e-06 3.26973e-07 0.107887)
(-3.81556e-06 2.2955e-06 0.107887)
(5.44842e-06 -1.35943e-07 0.107859)
(2.01924e-06 -2.13341e-06 0.107857)
(-3.69792e-05 3.70938e-05 0.104386)
(4.7653e-05 -4.75081e-05 0.104503)
(-4.807e-07 -1.11319e-06 0.107888)
(-2.71931e-07 5.35877e-06 0.107883)
(-1.2579e-06 6.55436e-06 0.10786)
(-2.64641e-06 -2.69643e-06 0.107862)
(-1.09225e-06 -5.18884e-08 0.107887)
(1.86658e-06 -1.74461e-06 0.10786)
(-5.92519e-07 -1.63072e-06 0.107856)
(3.13e-05 -3.12695e-05 0.104383)
(-4.17987e-05 4.18298e-05 0.104514)
(-2.09838e-06 -2.52964e-07 0.107888)
(2.92603e-06 2.18939e-06 0.107866)
(-2.72473e-06 5.24608e-07 0.107857)
(4.35003e-05 4.44967e-05 0.104499)
(4.02218e-05 4.07157e-05 0.104353)
(-4.86892e-05 -4.93599e-05 0.104459)
(8.28455e-06 1.17018e-06 0.107847)
(-3.43797e-07 -1.74457e-06 0.107847)
(-3.26527e-06 -8.85122e-07 0.107815)
(-4.2279e-06 1.10711e-06 0.107818)
(-3.31532e-05 3.36712e-05 0.104357)
(4.216e-05 -4.19028e-05 0.104461)
(5.68141e-07 8.38055e-06 0.107848)
(-5.40696e-07 -7.70314e-06 0.107854)
(-2.56209e-07 -3.75509e-06 0.107817)
(8.25872e-07 1.8496e-06 0.10782)
(9.33326e-07 -1.15298e-06 0.107846)
(-4.38937e-07 4.37005e-06 0.10782)
(1.12375e-06 -2.57408e-06 0.107819)
(4.12032e-05 -4.07223e-05 0.104367)
(-4.85777e-05 4.9022e-05 0.104463)
(-1.29732e-06 1.70185e-06 0.107848)
(-1.56432e-06 1.7829e-07 0.107822)
(-2.14722e-06 5.27244e-07 0.107821)
(4.41319e-05 4.34514e-05 0.104466)
(2.87276e-05 2.8176e-05 0.104321)
(-4.10409e-05 -4.139e-05 0.104451)
(-7.02924e-06 -2.84421e-06 0.107807)
(8.28586e-07 -5.29125e-07 0.107808)
(2.9358e-06 -3.64133e-06 0.107787)
(3.46117e-06 -5.59974e-06 0.107784)
(-3.46531e-05 3.4208e-05 0.104319)
(4.64139e-05 -4.71144e-05 0.104452)
(-2.26704e-06 -7.16794e-06 0.107808)
(-2.00947e-06 8.00921e-06 0.10781)
(-3.9067e-06 2.00163e-06 0.107787)
(-5.58839e-06 -6.81087e-06 0.107786)
(-3.34442e-07 -2.22022e-06 0.107809)
(4.77295e-06 -4.04344e-06 0.107788)
(5.18345e-06 6.11533e-06 0.107786)
(2.73437e-05 -2.77415e-05 0.104324)
(-3.77575e-05 3.66493e-05 0.104451)
(-2.08608e-06 -1.00477e-06 0.107811)
(6.07801e-06 4.04041e-06 0.107789)
(7.19043e-06 5.40352e-06 0.107786)
(4.99757e-05 4.94216e-05 0.10445)
(3.81073e-05 3.74855e-05 0.104311)
(-5.14642e-05 -5.22277e-05 0.104434)
(4.43901e-06 -3.31933e-06 0.10778)
(-3.30215e-06 -5.13586e-06 0.107778)
(-8.23874e-06 -5.98006e-06 0.107761)
(-2.59171e-07 -8.23492e-07 0.107753)
(-3.48408e-05 3.45651e-05 0.104313)
(4.64329e-05 -4.71644e-05 0.104416)
(-3.32425e-06 2.48336e-06 0.107781)
(-2.28068e-06 -1.6268e-05 0.107776)
(-4.4898e-06 -8.96627e-06 0.107764)
(4.71095e-07 1.01084e-05 0.107744)
(7.67246e-06 1.93901e-06 0.107778)
(9.22867e-07 -2.06908e-06 0.107758)
(-1.77929e-06 -1.06512e-05 0.107752)
(4.54614e-05 -4.59795e-05 0.104307)
(-5.69272e-05 5.65784e-05 0.104403)
(3.96602e-06 7.63683e-06 0.10778)
(-1.22869e-05 2.14285e-07 0.107748)
(-1.0046e-05 -3.0966e-06 0.107755)
(3.62e-05 3.54893e-05 0.104407)
(2.75183e-05 2.75247e-05 0.104299)
(-2.97297e-05 -2.73223e-05 0.104372)
(-4.55206e-06 -5.71123e-06 0.107754)
(1.08489e-05 -2.95923e-06 0.107747)
(1.87682e-05 2.50768e-06 0.107714)
(6.04558e-06 -9.94486e-06 0.107735)
(-2.69507e-05 2.61524e-05 0.104283)
(4.54127e-05 -3.93274e-05 0.104428)
(-5.19031e-06 -3.01397e-06 0.107756)
(-6.08101e-06 2.63546e-05 0.10774)
(-2.14488e-07 2.09569e-05 0.107714)
(-1.1129e-05 -3.9508e-06 0.107739)
(-3.38677e-06 7.04945e-07 0.107744)
(1.30796e-05 4.04392e-06 0.107735)
(1.5668e-05 2.3839e-05 0.107729)
(1.38265e-05 -1.45844e-05 0.104276)
(-2.87733e-05 3.48288e-05 0.104438)
(-8.81153e-07 -3.58169e-06 0.107746)
(1.40564e-05 1.39919e-05 0.107738)
(2.17847e-05 1.80966e-05 0.107729)
(6.13153e-05 6.34923e-05 0.104436)
(4.15286e-05 4.2978e-05 0.104234)
(-8.03062e-05 -8.20352e-05 0.104439)
(7.00737e-06 2.56609e-06 0.1077)
(-1.27399e-05 -5.53734e-06 0.107727)
(-4.6886e-05 -2.12882e-05 0.107712)
(-1.355e-05 2.81463e-06 0.107677)
(-3.93111e-05 4.53666e-05 0.104286)
(3.84493e-05 -5.07948e-05 0.104334)
(1.36593e-06 6.98061e-06 0.107701)
(-2.20733e-06 -2.53878e-05 0.10773)
(-1.93449e-05 -4.81887e-05 0.107715)
(1.49621e-06 -2.53339e-06 0.107676)
(1.85453e-05 7.60918e-06 0.107727)
(-9.00037e-06 -4.21863e-06 0.107683)
(-7.22468e-06 -2.47008e-05 0.107705)
(5.83383e-05 -5.19429e-05 0.104292)
(-6.18611e-05 4.93271e-05 0.104334)
(7.68941e-06 1.9694e-05 0.107728)
(-1.52222e-05 -7.65801e-06 0.107682)
(-2.35951e-05 -8.98323e-06 0.107707)
(2.41804e-05 2.25742e-05 0.10436)
(5.31108e-06 4.36879e-06 0.104319)
(1.59481e-05 1.6904e-05 0.104301)
(-2.21493e-05 -2.18839e-05 0.107719)
(1.20616e-05 -5.82974e-06 0.107666)
(7.13859e-05 1.42408e-05 0.107664)
(3.27844e-05 -2.18397e-05 0.107685)
(-2.67809e-05 1.29172e-05 0.104209)
(6.24532e-05 -4.85528e-05 0.10443)
(-2.15793e-05 -2.19297e-05 0.10772)
(-1.0015e-05 1.82329e-05 0.107664)
(1.29376e-05 7.11553e-05 0.107666)
(-1.47196e-05 1.99342e-05 0.107682)
(-1.04351e-05 -8.71733e-06 0.10769)
(2.73025e-05 -1.30519e-05 0.107686)
(1.67738e-05 2.02605e-05 0.107649)
(3.05896e-06 -1.71563e-05 0.104211)
(-3.86337e-05 5.27632e-05 0.104418)
(-9.00885e-06 -1.06379e-05 0.107691)
(-2.87295e-08 1.989e-05 0.107682)
(2.08286e-05 1.74807e-05 0.107651)
(6.08599e-05 6.1475e-05 0.104365)
(7.58878e-05 7.62484e-05 0.104148)
(-0.000133751 -0.000131777 0.104408)
(4.02835e-05 1.96683e-05 0.10763)
(4.36269e-06 -1.10947e-05 0.107694)
(-0.00011064 -3.11392e-05 0.107638)
(-3.96204e-05 1.38471e-05 0.107643)
(-2.61011e-05 4.34763e-05 0.104299)
(1.94334e-05 -3.31974e-05 0.104302)
(2.04745e-05 4.01288e-05 0.107634)
(-3.04277e-06 9.24077e-06 0.107691)
(-3.25969e-05 -0.000104517 0.107634)
(-6.96959e-06 -1.35231e-05 0.107667)
(2.08997e-05 9.66906e-06 0.107646)
(-1.78645e-05 1.99312e-05 0.107647)
(-1.77955e-06 -3.04991e-06 0.107655)
(4.66959e-05 -2.86283e-05 0.104287)
(-5.33025e-05 3.92692e-05 0.104369)
(9.60865e-06 1.99026e-05 0.107649)
(-6.91e-06 3.55164e-06 0.107672)
(-9.20112e-06 8.06346e-07 0.107652)
(3.26469e-05 3.52925e-05 0.104349)
(-4.60115e-05 -4.46997e-05 0.104321)
(6.87801e-05 5.0927e-05 0.104345)
(-8.04206e-05 -4.51807e-05 0.107671)
(-1.12848e-05 7.3692e-07 0.107613)
(0.000122349 2.96348e-06 0.10766)
(5.78262e-05 -3.78583e-05 0.107621)
(-4.1393e-05 2.15779e-05 0.104169)
(8.42196e-05 -7.00876e-05 0.104402)
(-4.89605e-05 -7.9443e-05 0.107665)
(-1.39707e-05 -3.05936e-05 0.107636)
(1.62868e-05 9.36602e-05 0.107671)
(1.02041e-05 -2.29771e-05 0.107563)
(-3.18118e-06 5.94321e-06 0.107654)
(3.9436e-05 -3.77119e-05 0.107627)
(2.11536e-05 4.49444e-06 0.107628)
(2.14203e-05 -4.14991e-05 0.104229)
(-4.54407e-06 2.03208e-05 0.104222)
(4.72744e-06 5.57239e-07 0.107649)
(4.37045e-05 -7.22941e-06 0.107569)
(3.31646e-05 9.9238e-06 0.10764)
(6.87659e-05 5.0811e-05 0.104377)
(0.000133393 0.000117365 0.104167)
(-0.000156355 -0.000116495 0.104269)
(0.000104747 2.40892e-05 0.107616)
(2.79424e-05 -2.21884e-05 0.10764)
(-0.000122647 4.6533e-07 0.107547)
(-6.40778e-05 3.13477e-05 0.10761)
(-5.44052e-06 2.7742e-05 0.104283)
(-1.11504e-05 2.19147e-06 0.104255)
(4.0978e-05 8.47235e-05 0.107632)
(2.17758e-05 2.42926e-05 0.107563)
(-2.52176e-05 -6.31977e-05 0.107535)
(-4.78918e-05 0.000110936 0.107652)
(2.63223e-05 7.23178e-06 0.107627)
(-2.46721e-05 5.52802e-05 0.107601)
(-1.76036e-06 1.07856e-05 0.107639)
(5.66493e-05 -3.27171e-05 0.104101)
(-0.000139291 0.000128781 0.10449)
(2.79226e-05 1.1511e-05 0.107645)
(-0.000121865 5.11924e-05 0.107639)
(-4.672e-05 2.15534e-05 0.107625)
(6.66163e-06 4.72433e-05 0.104356)
(-8.45585e-05 -4.39792e-05 0.104192)
(2.90654e-05 -2.23755e-05 0.104466)
(-0.000132167 -1.96662e-05 0.107571)
(-3.89079e-05 1.59472e-05 0.107571)
(6.55374e-05 -4.25331e-05 0.10765)
(8.19828e-05 -6.21158e-05 0.10756)
(-6.8767e-05 4.55222e-05 0.104117)
(0.000109105 -0.000136544 0.104399)
(-5.62575e-05 -7.40533e-05 0.107546)
(-6.84726e-05 3.64315e-05 0.107675)
(-1.62194e-05 -5.03208e-06 0.107657)
(1.31964e-05 -0.000167524 0.1076)
(-1.9294e-05 -1.19316e-05 0.107616)
(3.07594e-05 -0.000122921 0.107585)
(-4.52868e-06 -5.99665e-05 0.107495)
(-5.08667e-05 2.72844e-05 0.104398)
(8.02477e-05 -0.000105834 0.104242)
(-6.95213e-05 1.76241e-05 0.107591)
(0.000129657 -4.3063e-05 0.107622)
(7.24219e-06 -2.68626e-05 0.107506)
(4.53481e-05 -6.66202e-06 0.104154)
(0.000119589 5.65557e-05 0.104315)
(-7.20927e-05 -3.4915e-05 0.104249)
(0.000104037 -3.16785e-05 0.107641)
(7.68226e-05 -6.37628e-05 0.107608)
(-1.69753e-05 1.98501e-05 0.107554)
(-5.74254e-05 3.44077e-05 0.107651)
(2.89948e-05 -4.08781e-05 0.104316)
(-1.34274e-05 7.65303e-05 0.104367)
(2.15888e-05 1.03176e-05 0.107669)
(4.85933e-05 -0.000106903 0.107546)
(1.53548e-05 2.60375e-05 0.107565)
(-2.56938e-06 0.000191279 0.107491)
(1.96751e-05 -2.12289e-05 0.107478)
(1.29443e-05 0.000136937 0.107636)
(4.32054e-05 0.000126241 0.107582)
(0.000138199 -0.000148103 0.104062)
(-0.000158394 0.000216369 0.104279)
(7.06253e-05 -3.23816e-05 0.107508)
(-0.000114625 4.65136e-05 0.107476)
(8.64997e-05 4.4301e-05 0.107596)
(0.00010274 0.000136236 0.104463)
(-2.17893e-05 3.95683e-05 0.104128)
(-5.77977e-05 -3.51889e-05 0.104301)
(-6.59433e-05 2.67818e-05 0.107535)
(-7.23262e-05 5.75303e-05 0.107593)
(-3.21713e-05 -5.75082e-06 0.107521)
(2.87153e-05 -7.87202e-06 0.107417)
(-8.80465e-05 0.000146264 0.104187)
(7.77518e-05 -0.000112528 0.104128)
(-2.10888e-05 3.37044e-05 0.10752)
(-4.46294e-05 0.000191052 0.107536)
(-4.79061e-05 6.07537e-07 0.107495)
(-4.20085e-05 -0.000101176 0.107647)
(3.4314e-05 0.000127087 0.107647)
(-6.5359e-06 -6.42983e-05 0.107424)
(-1.30381e-05 -6.90537e-05 0.107664)
(-8.2311e-05 0.000135241 0.10423)
(3.84674e-05 -6.86749e-05 0.104499)
(2.91644e-05 7.73447e-05 0.107632)
(6.74294e-05 3.07306e-05 0.107651)
(-0.000104119 3.33705e-05 0.107637)
(-4.67055e-05 -1.89803e-05 0.104407)
(3.42174e-05 2.53521e-05 0.104187)
(-2.11695e-06 -8.21896e-05 0.10432)
(9.16453e-06 -2.65781e-05 0.107524)
(5.64496e-05 -4.21917e-05 0.107422)
(4.4392e-05 -4.11351e-05 0.10754)
(2.64476e-05 -5.47674e-05 0.107589)
(1.69374e-05 -6.22292e-05 0.104046)
(4.26834e-05 -6.68592e-05 0.104477)
(-2.2117e-05 -3.08244e-05 0.107521)
(-4.80726e-06 -0.000161476 0.107619)
(3.23693e-05 -5.22579e-05 0.107576)
(2.58244e-05 9.47879e-08 0.107455)
(-1.78476e-05 -0.000119069 0.107598)
(2.69596e-05 -6.24983e-05 0.107605)
(1.25956e-05 -3.35551e-05 0.107421)
(0.000125752 -0.000166575 0.104313)
(-8.97179e-05 6.59077e-05 0.104115)
(-8.10257e-05 -1.88997e-05 0.107596)
(-3.49741e-05 -5.4048e-05 0.107471)
(6.15618e-05 -5.97562e-05 0.107458)
(0.000103318 2.54589e-05 0.104116)
(5.7412e-05 1.32399e-06 0.104202)
(-8.38365e-05 -8.2608e-06 0.104312)
(2.1327e-05 -2.5044e-05 0.107543)
(-1.00765e-06 -3.10175e-05 0.107632)
(-4.53763e-05 1.59233e-05 0.107535)
(-2.50515e-05 2.53088e-05 0.107582)
(-4.08053e-05 3.02276e-05 0.104366)
(3.38018e-05 7.17356e-06 0.104316)
(2.16181e-05 -2.5186e-05 0.107567)
(2.34803e-06 7.51549e-05 0.107436)
(-3.73679e-05 3.6951e-05 0.107511)
(-3.89923e-05 7.16406e-05 0.107532)
(2.04815e-05 2.9732e-05 0.107413)
(4.48328e-06 7.19299e-05 0.107571)
(1.53663e-05 8.86065e-05 0.107517)
(-4.21647e-05 3.22097e-05 0.104028)
(-4.00173e-05 7.90274e-05 0.104454)
(7.54542e-05 -2.41492e-05 0.107438)
(-2.57667e-05 6.78821e-05 0.107521)
(7.00946e-06 6.64734e-05 0.107494)
(2.71e-05 0.000100377 0.104395)
(-1.09631e-05 6.05394e-05 0.104196)
(-3.35162e-05 -5.66665e-05 0.104323)
(-4.54191e-05 1.31681e-05 0.107528)
(-1.37266e-05 2.37186e-05 0.107534)
(4.91841e-08 -1.85502e-05 0.107515)
(1.76563e-05 -1.51641e-05 0.107455)
(-3.2164e-05 6.87648e-05 0.10417)
(5.27785e-05 -6.42371e-05 0.104243)
(-4.13611e-05 3.15321e-05 0.107504)
(-3.26266e-05 2.5423e-05 0.107572)
(-1.0847e-05 -1.82294e-05 0.107523)
(4.08018e-06 -4.70825e-05 0.107562)
(1.26583e-05 6.59389e-05 0.107558)
(1.17982e-05 -2.49039e-05 0.10746)
(1.48989e-05 -2.3814e-05 0.107586)
(4.94211e-05 -1.49398e-05 0.10435)
(-1.55669e-05 5.76495e-06 0.104321)
(-9.74628e-06 6.54283e-05 0.107534)
(4.02772e-05 -6.51013e-06 0.107567)
(-6.63678e-06 7.55058e-06 0.107593)
(3.88792e-05 1.72666e-05 0.104393)
(4.34627e-05 1.11778e-05 0.104206)
(-3.74398e-05 -4.7982e-05 0.104302)
(1.21919e-05 -2.45949e-05 0.107513)
(1.73345e-05 -2.36337e-05 0.107458)
(6.50171e-06 -1.66422e-05 0.107502)
(1.99436e-06 -2.12821e-05 0.107497)
(-1.98339e-05 3.8842e-06 0.104139)
(3.64575e-05 -4.96719e-05 0.104318)
(-8.65339e-07 -2.6367e-05 0.107529)
(7.28887e-06 -3.61803e-05 0.107527)
(-2.00052e-06 -9.8232e-06 0.107509)
(-1.48808e-05 2.01347e-05 0.107467)
(1.43652e-05 -3.80723e-05 0.107565)
(9.5251e-06 -2.05139e-05 0.107505)
(4.33735e-06 -2.08819e-05 0.107481)
(4.43754e-05 -5.88837e-05 0.104175)
(-7.30244e-05 5.95546e-05 0.104263)
(-1.06262e-06 -8.15797e-06 0.10758)
(-3.80599e-05 2.90278e-06 0.107475)
(-4.33041e-06 -9.76441e-06 0.107489)
(4.14972e-05 3.00858e-05 0.104245)
(2.93659e-05 2.71892e-05 0.104184)
(-4.76708e-05 -3.64785e-05 0.104286)
(-1.38021e-06 -1.09738e-05 0.107497)
(3.54234e-07 -1.56483e-05 0.107504)
(-9.52041e-06 -4.92423e-06 0.107479)
(1.0182e-05 -6.42619e-06 0.107499)
(-3.4377e-05 2.50651e-05 0.104205)
(5.01721e-05 -3.98906e-05 0.104313)
(-8.31039e-06 -1.12577e-06 0.107498)
(-2.06412e-05 2.63559e-05 0.107471)
(-1.57058e-05 2.87822e-06 0.107474)
(-1.63144e-05 1.00413e-05 0.107502)
(2.79329e-06 -3.04354e-06 0.107463)
(1.22371e-05 8.97339e-07 0.107499)
(1.21866e-05 3.15062e-05 0.107459)
(1.15759e-08 -9.81543e-06 0.104164)
(-3.40557e-05 4.40434e-05 0.104343)
(-2.36395e-06 1.48116e-07 0.107465)
(7.74509e-07 2.15119e-05 0.107502)
(1.91767e-05 2.20725e-05 0.107454)
(5.28224e-05 6.36786e-05 0.104285)
(2.38734e-05 3.13672e-05 0.104175)
(-4.34697e-05 -5.27768e-05 0.104316)
(-8.52174e-06 -7.29059e-06 0.107476)
(1.29952e-05 -7.21929e-06 0.107494)
(-8.02435e-06 -1.62737e-05 0.107478)
(7.35507e-06 -1.26006e-05 0.107485)
(-1.92634e-05 3.03023e-05 0.1042)
(4.38586e-05 -4.24537e-05 0.104319)
(-1.36191e-05 -2.81733e-06 0.107473)
(-1.0746e-05 2.1001e-06 0.107504)
(-9.14655e-06 -1.76817e-05 0.107482)
(-3.32431e-06 -4.07101e-06 0.107477)
(1.75185e-05 2.94399e-05 0.107471)
(1.64411e-05 -3.78757e-06 0.107485)
(2.08099e-05 -1.06237e-07 0.107502)
(4.08251e-05 -2.99304e-05 0.104226)
(-3.62774e-05 3.7748e-05 0.104289)
(2.36882e-05 2.30397e-05 0.107468)
(7.49007e-06 7.41583e-06 0.107477)
(9.68631e-06 1.39392e-05 0.107505)
(4.38172e-05 3.46907e-05 0.104353)
(2.62984e-05 1.79557e-05 0.104209)
(-4.58698e-05 -4.06903e-05 0.104341)
(-9.07837e-06 -1.71358e-05 0.107483)
(2.92148e-06 -1.38455e-05 0.107483)
(-8.9212e-06 -1.29415e-05 0.107493)
(-1.05228e-06 -1.38807e-05 0.107479)
(-2.86438e-05 2.69388e-05 0.104206)
(3.7849e-05 -4.83927e-05 0.104319)
(-1.03599e-05 -1.74034e-05 0.107486)
(-6.31746e-06 -1.25692e-06 0.107467)
(-1.53002e-05 -4.21696e-06 0.107493)
(-1.71952e-05 9.05049e-06 0.107462)
(1.59916e-05 -8.47756e-06 0.107503)
(5.02411e-06 -1.19657e-05 0.107485)
(1.74226e-06 -3.29945e-06 0.107477)
(2.95911e-05 -3.13202e-05 0.104174)
(-5.51805e-05 4.4627e-05 0.104308)
(-1.42275e-09 9.22901e-06 0.107506)
(-2.18573e-05 8.27995e-06 0.107468)
(-8.18901e-06 4.14645e-06 0.107476)
(3.43201e-05 3.95233e-05 0.104295)
(2.51442e-05 3.13806e-05 0.104228)
(-4.29071e-05 -4.06357e-05 0.104322)
(-7.13803e-06 -1.05414e-05 0.107493)
(2.0995e-06 -1.29282e-05 0.107478)
(-3.57134e-06 -7.92586e-06 0.107477)
(1.213e-05 -9.60451e-06 0.107474)
(-3.06958e-05 2.2208e-05 0.104207)
(4.96311e-05 -4.12224e-05 0.104327)
(-1.51694e-05 1.3673e-07 0.107492)
(-1.75835e-05 1.10665e-05 0.107468)
(-1.10069e-05 1.20639e-07 0.107478)
(-1.17958e-05 1.22187e-05 0.107483)
(2.32227e-06 5.23127e-06 0.107467)
(1.42517e-05 -3.56983e-06 0.107474)
(1.35643e-05 1.85217e-05 0.107459)
(1.61153e-05 -2.46957e-05 0.104203)
(-3.98797e-05 4.83263e-05 0.104344)
(-2.02742e-06 6.96441e-06 0.107466)
(-3.64585e-06 1.64897e-05 0.107483)
(1.46998e-05 1.66225e-05 0.10746)
(5.02135e-05 5.27322e-05 0.104318)
(2.71079e-05 2.79955e-05 0.104209)
(-4.24668e-05 -4.53792e-05 0.104317)
(-3.54629e-06 -9.07847e-06 0.10747)
(1.26083e-05 -9.28115e-06 0.107472)
(-4.80628e-06 -1.28014e-05 0.107456)
(6.30982e-06 -1.1027e-05 0.107464)
(-2.01353e-05 2.9385e-05 0.104217)
(4.31724e-05 -4.10426e-05 0.104327)
(-1.01652e-05 -2.60136e-06 0.107472)
(-9.95058e-06 1.07136e-05 0.107483)
(-1.06085e-05 -8.01986e-06 0.107459)
(-9.26434e-06 3.85503e-06 0.107469)
(1.6141e-05 1.60044e-05 0.107464)
(1.44106e-05 -2.34897e-06 0.107466)