/*--------------------------------*- C++ -*----------------------------------*\
| =========                 |                                                 |
| \\      /  F ield         | OpenFOAM: The Open Source CFD Toolbox           |
|  \\    /   O peration     | Version:  v2012                                 |
|   \\  /    A nd           | Website:  www.openfoam.com                      |
|    \\/     M anipulation  |                                                 |
\*---------------------------------------------------------------------------*/
FoamFile
{
    version     2.0;
    format      ascii;
    class       volScalarField;
    location    "237.5";
    object      epsilon;
}
// * * * * * * * * * * * * * * * * * * * * * * * * * * * * * * * * * * * * * //

dimensions      [0 2 -3 0 0 0 0];


internalField   nonuniform List<scalar> 
171728
(
7.29566e-09
8.75969e-09
4.05771e-09
4.95126e-09
7.25231e-09
8.63974e-09
3.91133e-09
4.48807e-09
7.29981e-09
8.66648e-09
3.80532e-09
4.07776e-09
7.35626e-09
8.89894e-09
3.78397e-09
3.7297e-09
7.42174e-09
9.22962e-09
3.83002e-09
3.43242e-09
7.48281e-09
9.1967e-09
3.99482e-09
3.18447e-09
7.54704e-09
7.27147e-09
4.1543e-09
2.98117e-09
7.57474e-09
5.29871e-09
4.18191e-09
2.81257e-09
7.59997e-09
4.35304e-09
3.93323e-09
2.67685e-09
7.66359e-09
3.75484e-09
3.71345e-09
2.5724e-09
7.75123e-09
3.17565e-09
3.57528e-09
2.50169e-09
7.85486e-09
2.79843e-09
3.44656e-09
2.47078e-09
7.97637e-09
2.72612e-09
3.31316e-09
2.48442e-09
8.11627e-09
2.827e-09
3.29682e-09
2.55504e-09
8.26065e-09
3.057e-09
3.44188e-09
2.70534e-09
8.41494e-09
3.41e-09
3.73938e-09
2.98561e-09
8.57241e-09
3.94264e-09
4.18912e-09
3.4812e-09
8.73703e-09
4.8233e-09
4.99006e-09
4.31868e-09
8.92098e-09
5.84683e-09
6.15593e-09
5.78556e-09
9.11699e-09
7.90385e-09
7.87948e-09
8.32058e-09
9.34055e-09
9.99482e-09
1.06978e-08
1.37758e-08
9.58841e-09
1.44786e-08
1.3789e-08
1.81659e-08
9.87078e-09
1.83688e-08
1.97352e-08
4.08318e-08
1.01983e-08
2.71561e-08
2.58336e-08
4.59617e-08
1.0586e-08
3.47705e-08
3.51129e-08
7.1876e-08
1.10832e-08
4.61245e-08
4.69434e-08
1.31258e-07
1.16955e-08
6.11892e-08
6.09529e-08
1.52869e-07
1.24342e-08
7.93463e-08
8.06508e-08
2.46682e-07
1.34065e-08
9.7955e-08
9.62396e-08
2.81124e-07
1.46815e-08
1.21694e-07
1.26279e-07
3.96045e-07
1.60546e-08
1.52125e-07
1.48389e-07
4.61965e-07
1.80321e-08
1.77888e-07
1.78637e-07
5.27679e-07
2.04928e-08
2.12599e-07
2.14066e-07
6.08136e-07
2.35381e-08
2.50736e-07
2.49663e-07
6.69098e-07
2.725e-08
2.90075e-07
2.91267e-07
7.31064e-07
3.18791e-08
3.31405e-07
3.3248e-07
7.79288e-07
3.73941e-08
3.78688e-07
3.76873e-07
8.28185e-07
4.43479e-08
4.23174e-07
4.24575e-07
8.67874e-07
5.19876e-08
4.71747e-07
4.71305e-07
9.0517e-07
6.18487e-08
5.21692e-07
5.1947e-07
9.41212e-07
7.25052e-08
5.69515e-07
5.70155e-07
9.71962e-07
8.59148e-08
6.18336e-07
6.15399e-07
1.00501e-06
9.94575e-08
6.6581e-07
6.65189e-07
1.03244e-06
1.16667e-07
7.14071e-07
7.14938e-07
1.06208e-06
1.35516e-07
7.55512e-07
7.53597e-07
1.09056e-06
1.54676e-07
7.95235e-07
7.96365e-07
1.11533e-06
1.75707e-07
8.30706e-07
8.32752e-07
1.13453e-06
1.99026e-07
8.66756e-07
8.67254e-07
1.15636e-06
2.22767e-07
8.88736e-07
8.90137e-07
1.16986e-06
2.4427e-07
9.08831e-07
9.09453e-07
1.18031e-06
2.81233e-07
9.50249e-07
9.4969e-07
1.21725e-06
3.20984e-07
9.79096e-07
9.78217e-07
1.24492e-06
3.3827e-07
9.83391e-07
9.82822e-07
1.24453e-06
3.36985e-07
9.64382e-07
9.64312e-07
1.21281e-06
3.24627e-07
9.42111e-07
9.42374e-07
1.1751e-06
3.2689e-07
9.34338e-07
9.34637e-07
1.15616e-06
3.54693e-07
9.46851e-07
9.47041e-07
1.16419e-06
4.11776e-07
9.88818e-07
9.88938e-07
1.21285e-06
4.70415e-07
1.03249e-06
1.03259e-06
1.26857e-06
5.09556e-07
1.06232e-06
1.06242e-06
1.30924e-06
5.29417e-07
1.07819e-06
1.07828e-06
1.33244e-06
5.37769e-07
1.08533e-06
1.08542e-06
1.34369e-06
5.40992e-07
1.08838e-06
1.08847e-06
1.3487e-06
5.42104e-07
1.08949e-06
1.08957e-06
1.35074e-06
5.42265e-07
1.08965e-06
1.08974e-06
1.35115e-06
5.42257e-07
1.08962e-06
1.08971e-06
1.35094e-06
5.4234e-07
1.08977e-06
1.08986e-06
1.35136e-06
5.42304e-07
1.08969e-06
1.08978e-06
1.35121e-06
5.42301e-07
1.08969e-06
1.08978e-06
1.35115e-06
5.42309e-07
1.08972e-06
1.08981e-06
1.35134e-06
5.42295e-07
1.08968e-06
1.08977e-06
1.35107e-06
5.42302e-07
1.08972e-06
1.08981e-06
1.35131e-06
5.42294e-07
1.08969e-06
1.08977e-06
1.35107e-06
5.42294e-07
1.0897e-06
1.08979e-06
1.35129e-06
5.4229e-07
1.08969e-06
1.08978e-06
1.35112e-06
5.42289e-07
1.08969e-06
1.08978e-06
1.35122e-06
5.42287e-07
1.08969e-06
1.08978e-06
1.35123e-06
5.42286e-07
1.08969e-06
1.08978e-06
1.35113e-06
5.42285e-07
1.08969e-06
1.08978e-06
1.35122e-06
5.42285e-07
1.08969e-06
1.08979e-06
1.35123e-06
5.42284e-07
1.0897e-06
1.08979e-06
1.3512e-06
5.42284e-07
1.08969e-06
1.08978e-06
1.35111e-06
5.42285e-07
1.0897e-06
1.08978e-06
1.35122e-06
5.42286e-07
1.0897e-06
1.08979e-06
1.35123e-06
5.42285e-07
1.0897e-06
1.08979e-06
1.35125e-06
5.42286e-07
1.0897e-06
1.08979e-06
1.35112e-06
5.42284e-07
1.08971e-06
1.08979e-06
1.35122e-06
5.42285e-07
1.08971e-06
1.08979e-06
1.35125e-06
5.42286e-07
1.08971e-06
1.0898e-06
1.35111e-06
5.42289e-07
1.08973e-06
1.08981e-06
1.35115e-06
5.42294e-07
1.08974e-06
1.08983e-06
1.35124e-06
5.42301e-07
1.08977e-06
1.08986e-06
1.35113e-06
5.42299e-07
1.08981e-06
1.0899e-06
1.3511e-06
5.4197e-07
1.0895e-06
1.08958e-06
1.35085e-06
5.22153e-07
1.03052e-06
1.03051e-06
1.30728e-06
5.04524e-09
4.21539e-09
4.92381e-09
4.79676e-09
4.97315e-09
4.74554e-09
7.38228e-09
8.12445e-09
7.31461e-09
7.21509e-09
5.69652e-09
4.21131e-09
4.8293e-09
3.67535e-09
4.16884e-09
4.97858e-09
4.99764e-09
4.62681e-09
5.14616e-09
7.49569e-09
4.7258e-09
7.23316e-09
4.729e-09
4.51497e-09
5.45622e-09
7.0516e-09
5.27717e-09
6.67759e-09
4.71667e-09
8.65795e-09
4.41668e-09
4.79357e-09
4.44032e-09
4.64322e-09
3.94626e-09
4.36421e-09
4.52164e-09
4.55755e-09
4.25324e-09
4.59589e-09
7.11618e-09
4.25794e-09
6.69505e-09
4.46364e-09
4.4068e-09
5.22018e-09
6.55122e-09
5.07086e-09
6.18593e-09
4.3183e-09
8.64124e-09
4.05033e-09
4.37246e-09
4.10512e-09
4.27221e-09
3.82492e-09
4.01448e-09
4.10688e-09
4.19478e-09
3.94582e-09
4.1534e-09
6.54288e-09
3.85977e-09
6.13404e-09
4.37036e-09
4.38242e-09
5.02623e-09
6.06572e-09
4.92381e-09
5.74854e-09
3.96877e-09
8.84173e-09
3.74007e-09
4.04951e-09
3.8531e-09
3.93478e-09
3.78348e-09
3.71333e-09
3.75472e-09
3.89733e-09
3.70377e-09
3.77152e-09
6.01694e-09
3.53866e-09
5.72872e-09
4.35605e-09
4.42308e-09
4.89781e-09
5.64033e-09
4.8448e-09
5.20637e-09
3.66936e-09
9.14716e-09
3.47196e-09
3.8085e-09
3.63345e-09
3.64507e-09
3.80723e-09
3.45511e-09
3.45374e-09
3.66532e-09
3.51639e-09
3.47119e-09
5.6641e-09
3.29109e-09
5.59579e-09
4.40013e-09
4.43765e-09
4.83079e-09
5.02928e-09
4.79281e-09
4.4889e-09
3.41071e-09
9.29198e-09
3.24372e-09
3.58463e-09
3.39824e-09
3.39743e-09
3.94817e-09
3.23753e-09
3.20147e-09
3.48605e-09
3.36844e-09
3.23861e-09
5.60203e-09
3.10261e-09
5.76349e-09
4.40012e-09
4.23339e-09
4.78757e-09
4.32342e-09
4.77563e-09
3.89592e-09
3.1935e-09
7.84081e-09
3.06036e-09
3.36402e-09
3.26078e-09
3.1901e-09
4.12249e-09
3.0617e-09
2.99414e-09
3.34726e-09
3.19706e-09
3.06317e-09
5.84109e-09
2.96389e-09
6.07736e-09
4.14001e-09
3.98418e-09
4.75613e-09
3.77701e-09
4.57916e-09
3.47859e-09
3.02021e-09
5.69044e-09
2.91972e-09
3.24476e-09
3.09983e-09
3.02341e-09
4.19115e-09
2.92649e-09
2.8218e-09
3.17745e-09
2.93933e-09
2.93567e-09
6.11778e-09
2.86777e-09
6.05201e-09
3.95747e-09
3.69408e-09
4.4928e-09
3.39338e-09
4.18312e-09
3.17014e-09
2.89218e-09
4.52468e-09
2.82469e-09
3.07738e-09
2.88044e-09
2.90041e-09
3.99994e-09
2.83568e-09
2.68211e-09
2.92574e-09
2.81235e-09
2.84977e-09
5.94389e-09
2.81238e-09
5.63091e-09
3.62656e-09
3.21974e-09
4.07814e-09
3.10134e-09
3.82879e-09
2.91909e-09
2.80819e-09
3.90708e-09
2.7704e-09
2.86924e-09
2.74149e-09
2.81802e-09
3.7576e-09
2.783e-09
2.57337e-09
2.81039e-09
2.74393e-09
2.80549e-09
5.52398e-09
2.8016e-09
5.19936e-09
3.19415e-09
2.96787e-09
3.77263e-09
2.86584e-09
3.66693e-09
2.74559e-09
2.76235e-09
3.30682e-09
2.75421e-09
2.73462e-09
2.62194e-09
2.777e-09
3.60596e-09
2.77301e-09
2.49866e-09
2.74536e-09
2.68909e-09
2.80492e-09
5.0926e-09
2.83499e-09
4.77668e-09
2.95461e-09
2.78725e-09
3.64271e-09
2.71488e-09
3.57962e-09
2.67461e-09
2.75602e-09
2.86491e-09
2.77797e-09
2.62013e-09
2.52597e-09
2.7761e-09
3.47787e-09
2.80362e-09
2.46029e-09
2.69355e-09
2.63241e-09
2.8486e-09
4.67345e-09
2.91028e-09
4.36879e-09
2.78365e-09
2.61175e-09
3.55855e-09
2.67474e-09
3.47813e-09
2.70158e-09
2.79077e-09
2.72665e-09
2.84795e-09
2.52905e-09
2.47222e-09
2.81872e-09
3.34047e-09
2.88619e-09
2.46346e-09
2.64054e-09
2.59817e-09
2.93641e-09
4.2645e-09
3.04141e-09
4.03608e-09
2.61055e-09
2.52359e-09
3.4447e-09
2.72484e-09
3.35677e-09
2.82006e-09
2.87366e-09
2.78631e-09
2.97617e-09
2.48842e-09
2.50304e-09
2.91501e-09
3.29645e-09
3.02832e-09
2.5194e-09
2.62371e-09
2.66591e-09
3.08317e-09
3.97556e-09
3.25433e-09
3.92361e-09
2.54558e-09
2.61335e-09
3.34556e-09
2.86345e-09
3.34907e-09
3.03254e-09
3.01999e-09
2.98877e-09
3.18368e-09
2.53292e-09
2.61961e-09
3.07572e-09
3.37305e-09
3.24459e-09
2.64547e-09
2.72534e-09
2.90515e-09
3.32479e-09
3.94082e-09
3.58045e-09
4.08413e-09
2.67332e-09
2.82519e-09
3.35874e-09
3.10525e-09
3.53901e-09
3.36749e-09
3.25197e-09
3.30831e-09
3.49564e-09
2.68734e-09
2.8632e-09
3.3143e-09
3.66046e-09
3.56887e-09
2.88733e-09
2.99451e-09
3.30642e-09
3.68121e-09
4.12804e-09
4.05339e-09
4.33254e-09
2.9075e-09
3.19943e-09
3.62333e-09
3.47122e-09
3.93973e-09
3.86874e-09
3.5944e-09
3.80689e-09
3.97852e-09
2.96012e-09
3.26594e-09
3.67222e-09
4.04896e-09
4.05836e-09
3.32623e-09
3.49094e-09
4.0044e-09
4.2148e-09
4.48104e-09
4.7923e-09
5.02278e-09
3.35205e-09
3.98647e-09
4.08511e-09
4.02594e-09
4.61501e-09
4.60542e-09
4.11622e-09
4.56245e-09
4.68822e-09
3.43978e-09
3.9925e-09
4.20588e-09
4.74111e-09
4.78812e-09
4.05062e-09
4.26145e-09
5.36848e-09
5.01874e-09
5.20498e-09
5.9051e-09
5.80976e-09
4.3207e-09
4.84699e-09
4.84308e-09
4.86022e-09
5.76211e-09
5.68473e-09
4.9088e-09
5.5233e-09
5.74784e-09
4.29399e-09
5.20983e-09
5.02022e-09
5.81315e-09
5.889e-09
5.32396e-09
5.8452e-09
7.32071e-09
6.24753e-09
6.14401e-09
7.46332e-09
7.81179e-09
5.22485e-09
7.85326e-09
6.10862e-09
6.04773e-09
7.30042e-09
7.38569e-09
6.07022e-09
7.35457e-09
7.36019e-09
5.64903e-09
7.65557e-09
6.21648e-09
7.47346e-09
7.52656e-09
7.5093e-09
8.13567e-09
1.11335e-08
7.99328e-09
8.34562e-09
9.80582e-09
9.80644e-09
8.78375e-09
1.06666e-08
7.83286e-09
7.75537e-09
9.65376e-09
9.80515e-09
7.82839e-09
9.44096e-09
9.92464e-09
8.18173e-09
1.13275e-08
8.00138e-09
9.86247e-09
1.00086e-08
1.19346e-08
1.24917e-08
1.7475e-08
1.06302e-08
1.02884e-08
1.31041e-08
1.27999e-08
1.14208e-08
1.69161e-08
1.04564e-08
1.06012e-08
1.29193e-08
1.30001e-08
1.0731e-08
1.28724e-08
1.24967e-08
1.30793e-08
1.73962e-08
1.08219e-08
1.29816e-08
1.28211e-08
1.60161e-08
1.90163e-08
2.94659e-08
1.40645e-08
1.43452e-08
1.80145e-08
1.75136e-08
2.07888e-08
2.86319e-08
1.38642e-08
1.37676e-08
1.79539e-08
1.79044e-08
1.38059e-08
1.75636e-08
1.95847e-08
1.86351e-08
2.86158e-08
1.41515e-08
1.80304e-08
1.94552e-08
3.92776e-08
3.29919e-08
4.4701e-08
1.94267e-08
1.83618e-08
2.41981e-08
2.48586e-08
2.93874e-08
4.9591e-08
1.93814e-08
1.97095e-08
2.39083e-08
2.36774e-08
2.04306e-08
2.48897e-08
2.32045e-08
3.36402e-08
4.41227e-08
2.02161e-08
2.37566e-08
2.35047e-08
4.10037e-08
4.93583e-08
7.04607e-08
2.6195e-08
2.71884e-08
3.23997e-08
3.19611e-08
5.86884e-08
6.87794e-08
2.58367e-08
2.56203e-08
3.22915e-08
3.30209e-08
2.53285e-08
3.19109e-08
3.14544e-08
4.77227e-08
7.55644e-08
2.5795e-08
3.30811e-08
3.17138e-08
6.71504e-08
7.64688e-08
1.08084e-07
3.46185e-08
3.46121e-08
4.43173e-08
4.34768e-08
7.36792e-08
1.14084e-07
3.45923e-08
3.52559e-08
4.40937e-08
4.32945e-08
3.40463e-08
4.37275e-08
4.58141e-08
8.016e-08
1.06507e-07
3.43783e-08
4.32613e-08
4.57262e-08
1.23222e-07
1.19235e-07
1.54526e-07
4.80194e-08
4.62356e-08
5.66209e-08
5.77784e-08
1.19478e-07
1.55632e-07
4.77168e-08
4.68877e-08
5.6244e-08
5.78094e-08
4.81638e-08
5.76184e-08
5.46273e-08
1.16894e-07
1.61683e-07
4.79457e-08
5.8002e-08
5.51088e-08
1.43471e-07
1.6169e-07
2.32613e-07
6.05682e-08
6.09546e-08
7.6684e-08
7.30431e-08
1.70523e-07
2.07941e-07
6.01407e-08
6.06837e-08
7.65577e-08
7.46597e-08
5.91416e-08
7.29095e-08
7.65416e-08
1.72428e-07
2.12165e-07
5.97045e-08
7.48101e-08
7.64206e-08
2.32827e-07
2.46825e-07
2.69823e-07
8.01335e-08
7.98886e-08
9.05399e-08
9.52077e-08
2.21889e-07
3.01202e-07
8.01465e-08
8.06936e-08
9.04106e-08
9.21963e-08
8.04973e-08
9.49595e-08
8.97567e-08
2.309e-07
2.8673e-07
8.04193e-08
9.20579e-08
8.99315e-08
2.71331e-07
2.81679e-07
3.90088e-07
9.69796e-08
9.80171e-08
1.20574e-07
1.12544e-07
3.09089e-07
3.43709e-07
9.67139e-08
9.62079e-08
1.20079e-07
1.18165e-07
9.4582e-08
1.12993e-07
1.18689e-07
2.95152e-07
3.67343e-07
9.48247e-08
1.18358e-07
1.19049e-07
3.71182e-07
4.07483e-07
4.39925e-07
1.26228e-07
1.20977e-07
1.41297e-07
1.47007e-07
3.64351e-07
4.64837e-07
1.25761e-07
1.26198e-07
1.41037e-07
1.42568e-07
1.2673e-07
1.46507e-07
1.4272e-07
3.94256e-07
4.51183e-07
1.27159e-07
1.42896e-07
1.43227e-07
4.52005e-07
4.51881e-07
5.14063e-07
1.47662e-07
1.52886e-07
1.70504e-07
1.6924e-07
4.7945e-07
5.13709e-07
1.47356e-07
1.48062e-07
1.70117e-07
1.70666e-07
1.47829e-07
1.70016e-07
1.70008e-07
4.6114e-07
5.11763e-07
1.48024e-07
1.70506e-07
1.69716e-07
5.09698e-07
5.32106e-07
5.91439e-07
1.78808e-07
1.76915e-07
2.04891e-07
2.04167e-07
5.27287e-07
5.8798e-07
1.7865e-07
1.78975e-07
2.04427e-07
2.04601e-07
1.78523e-07
2.03951e-07
2.04771e-07
5.29827e-07
5.92213e-07
1.78617e-07
2.04428e-07
2.05041e-07
5.93072e-07
6.06664e-07
6.56253e-07
2.13617e-07
2.12986e-07
2.40409e-07
2.40094e-07
6.04655e-07
6.56463e-07
2.12786e-07
2.13907e-07
2.40003e-07
2.41297e-07
2.13543e-07
2.40523e-07
2.38997e-07
6.07857e-07
6.5698e-07
2.13462e-07
2.41298e-07
2.39064e-07
6.54351e-07
6.7081e-07
7.15189e-07
2.50092e-07
2.49994e-07
2.80044e-07
2.80188e-07
6.71057e-07
7.15698e-07
2.49955e-07
2.49897e-07
2.79173e-07
2.79185e-07
2.48655e-07
2.80595e-07
2.81635e-07
6.70524e-07
7.15607e-07
2.48895e-07
2.79712e-07
2.81722e-07
7.17801e-07
7.28243e-07
7.66576e-07
2.89888e-07
2.90201e-07
3.21329e-07
3.21228e-07
7.28722e-07
7.66352e-07
2.8883e-07
2.90698e-07
3.2049e-07
3.23612e-07
2.91481e-07
3.20355e-07
3.19929e-07
7.29976e-07
7.68537e-07
2.91603e-07
3.2292e-07
3.19933e-07
7.66834e-07
7.79126e-07
8.14106e-07
3.32306e-07
3.31827e-07
3.64785e-07
3.65761e-07
7.78988e-07
8.14879e-07
3.31657e-07
3.33087e-07
3.64378e-07
3.6502e-07
3.31459e-07
3.66711e-07
3.67063e-07
7.79822e-07
8.12736e-07
3.3131e-07
3.64671e-07
3.67347e-07
8.16627e-07
8.25597e-07
8.57228e-07
3.76478e-07
3.77929e-07
4.13688e-07
4.12516e-07
8.26393e-07
8.56258e-07
3.75756e-07
3.77501e-07
4.1213e-07
4.13013e-07
3.78082e-07
4.12382e-07
4.13222e-07
8.24775e-07
8.58e-07
3.78556e-07
4.13171e-07
4.12695e-07
8.57549e-07
8.6777e-07
8.94648e-07
4.24913e-07
4.23306e-07
4.58091e-07
4.59005e-07
8.6647e-07
8.94905e-07
4.23611e-07
4.2432e-07
4.56871e-07
4.60682e-07
4.24968e-07
4.58851e-07
4.58082e-07
8.68285e-07
8.9444e-07
4.24243e-07
4.59177e-07
4.59766e-07
8.95239e-07
9.04716e-07
9.32441e-07
4.70991e-07
4.71889e-07
5.10027e-07
5.08798e-07
9.05377e-07
9.32081e-07
4.69409e-07
4.72613e-07
5.08467e-07
5.07103e-07
4.70304e-07
5.0953e-07
5.10495e-07
9.04292e-07
9.30388e-07
4.72694e-07
5.07501e-07
5.10778e-07
9.32208e-07
9.41538e-07
9.64004e-07
5.21467e-07
5.20767e-07
5.56155e-07
5.57344e-07
9.41041e-07
9.64301e-07
5.20335e-07
5.19677e-07
5.55537e-07
5.59626e-07
5.23001e-07
5.57661e-07
5.5749e-07
9.39774e-07
9.65716e-07
5.22632e-07
5.57349e-07
5.59318e-07
9.63093e-07
9.73139e-07
9.98177e-07
5.69145e-07
5.69374e-07
6.08263e-07
6.05541e-07
9.73041e-07
9.95494e-07
5.68374e-07
5.71856e-07
6.07004e-07
6.04427e-07
5.69487e-07
6.05905e-07
6.08263e-07
9.74673e-07
9.94835e-07
5.71697e-07
6.04578e-07
6.06393e-07
9.96691e-07
1.00612e-06
1.02408e-06
6.20123e-07
6.17973e-07
6.52862e-07
6.53925e-07
1.00394e-06
1.0265e-06
6.18878e-07
6.15557e-07
6.5153e-07
6.53024e-07
6.20896e-07
6.5413e-07
6.53739e-07
1.00252e-06
1.02624e-06
6.17852e-07
6.51773e-07
6.53424e-07
1.02491e-06
1.03168e-06
1.05521e-06
6.6407e-07
6.65414e-07
7.00577e-07
7.00634e-07
1.03442e-06
1.05595e-06
6.62714e-07
6.6642e-07
6.99959e-07
7.05147e-07
6.64188e-07
7.02019e-07
6.99491e-07
1.03553e-06
1.05945e-06
6.65532e-07
7.03643e-07
7.02532e-07
1.05387e-06
1.06382e-06
1.08473e-06
7.13012e-07
7.12574e-07
7.46609e-07
7.45289e-07
1.06395e-06
1.0838e-06
7.12869e-07
7.16737e-07
7.46701e-07
7.45732e-07
7.11937e-07
7.45957e-07
7.45146e-07
1.06658e-06
1.08204e-06
7.14791e-07
7.44187e-07
7.47694e-07
1.08359e-06
1.09126e-06
1.10768e-06
7.56755e-07
7.55307e-07
7.86947e-07
7.85691e-07
1.09037e-06
1.10721e-06
7.56373e-07
7.54562e-07
7.85168e-07
7.84414e-07
7.55311e-07
7.84977e-07
7.86755e-07
1.08834e-06
1.107e-06
7.57707e-07
7.85119e-07
7.8771e-07
1.1087e-06
1.11432e-06
1.1305e-06
7.97124e-07
7.96054e-07
8.24005e-07
8.2363e-07
1.11395e-06
1.13013e-06
7.95396e-07
7.95498e-07
8.23338e-07
8.24589e-07
7.9717e-07
8.22648e-07
8.23213e-07
1.11441e-06
1.13186e-06
7.97493e-07
8.24986e-07
8.22365e-07
1.12938e-06
1.13605e-06
1.15028e-06
8.31763e-07
8.31674e-07
8.57628e-07
8.58277e-07
1.13572e-06
1.15072e-06
8.31337e-07
8.32542e-07
8.57252e-07
8.58396e-07
8.30673e-07
8.5777e-07
8.57065e-07
1.13719e-06
1.15063e-06
8.29807e-07
8.58415e-07
8.56499e-07
1.1498e-06
1.15632e-06
1.16628e-06
8.66401e-07
8.67155e-07
8.85075e-07
8.85796e-07
1.15691e-06
1.16654e-06
8.66038e-07
8.67143e-07
8.84987e-07
8.85709e-07
8.66201e-07
8.85143e-07
8.85331e-07
1.15665e-06
1.16625e-06
8.65641e-07
8.86306e-07
8.84662e-07
1.16704e-06
1.16916e-06
1.17429e-06
8.88877e-07
8.8955e-07
9.01912e-07
9.02281e-07
1.16929e-06
1.17404e-06
8.88947e-07
8.89436e-07
9.02273e-07
9.0206e-07
8.89161e-07
9.01631e-07
9.02341e-07
1.16898e-06
1.17346e-06
8.88508e-07
9.02596e-07
9.01977e-07
1.17474e-06
1.17988e-06
1.2079e-06
9.09063e-07
9.09268e-07
9.39494e-07
9.39224e-07
1.17962e-06
1.20762e-06
9.09449e-07
9.09057e-07
9.39762e-07
9.3919e-07
9.09517e-07
9.39414e-07
9.39827e-07
1.17894e-06
1.20706e-06
9.0929e-07
9.39086e-07
9.39833e-07
1.2081e-06
1.21712e-06
1.24005e-06
9.50296e-07
9.49966e-07
9.74527e-07
9.74363e-07
1.21685e-06
1.23994e-06
9.50533e-07
9.4996e-07
9.74654e-07
9.74185e-07
9.50595e-07
9.74557e-07
9.74842e-07
1.21637e-06
1.23962e-06
9.50589e-07
9.73659e-07
9.74687e-07
1.2401e-06
1.24485e-06
1.24326e-06
9.7906e-07
9.79004e-07
9.83781e-07
9.83966e-07
1.2448e-06
1.24345e-06
9.79144e-07
9.78721e-07
9.83763e-07
9.83443e-07
9.79388e-07
9.83807e-07
9.84125e-07
1.24447e-06
1.24307e-06
9.79204e-07
9.83158e-07
9.83948e-07
1.24352e-06
1.24426e-06
1.21404e-06
9.83362e-07
9.83596e-07
9.71166e-07
9.71535e-07
1.24446e-06
1.21431e-06
9.83326e-07
9.83028e-07
9.71063e-07
9.70889e-07
9.8371e-07
9.71189e-07
9.71516e-07
1.24408e-06
1.21405e-06
9.83548e-07
9.71012e-07
9.71418e-07
1.2144e-06
1.21246e-06
1.17516e-06
9.6437e-07
9.64736e-07
9.46226e-07
9.46406e-07
1.21272e-06
1.1752e-06
9.64253e-07
9.64123e-07
9.46064e-07
9.46113e-07
9.64704e-07
9.46092e-07
9.46399e-07
1.2125e-06
1.17536e-06
9.64615e-07
9.46301e-07
9.46329e-07
1.1753e-06
1.17498e-06
1.15533e-06
9.42276e-07
9.424e-07
9.3522e-07
9.35229e-07
1.17501e-06
1.15522e-06
9.42108e-07
9.42206e-07
9.35045e-07
9.35268e-07
9.4241e-07
9.35008e-07
9.35278e-07
1.17518e-06
1.15558e-06
9.42339e-07
9.35318e-07
9.35191e-07
1.15534e-06
1.15615e-06
1.15815e-06
9.34546e-07
9.34537e-07
9.40756e-07
9.40718e-07
1.15605e-06
1.15804e-06
9.34375e-07
9.34624e-07
9.40604e-07
9.40906e-07
9.34594e-07
9.40582e-07
9.40789e-07
1.15641e-06
1.15837e-06
9.34503e-07
9.40795e-07
9.4069e-07
1.15815e-06
1.16418e-06
1.20115e-06
9.47022e-07
9.46991e-07
9.77209e-07
9.77207e-07
1.16408e-06
1.20106e-06
9.46879e-07
9.47164e-07
9.77078e-07
9.77317e-07
9.47065e-07
9.77068e-07
9.77272e-07
1.16438e-06
1.20127e-06
9.46967e-07
9.77198e-07
9.77168e-07
1.20121e-06
1.2128e-06
1.25771e-06
9.8896e-07
9.88968e-07
1.02274e-06
1.02276e-06
1.21272e-06
1.25763e-06
9.88839e-07
9.89057e-07
1.02263e-06
1.02281e-06
9.8903e-07
1.02261e-06
1.02281e-06
1.21291e-06
1.25777e-06
9.88926e-07
1.02271e-06
1.0227e-06
1.25778e-06
1.26851e-06
1.30138e-06
1.03262e-06
1.03265e-06
1.05644e-06
1.05648e-06
1.26844e-06
1.3013e-06
1.03252e-06
1.03269e-06
1.05634e-06
1.05651e-06
1.0327e-06
1.05632e-06
1.05652e-06
1.26856e-06
1.30141e-06
1.03259e-06
1.05641e-06
1.05641e-06
1.30145e-06
1.30918e-06
1.32734e-06
1.06245e-06
1.06248e-06
1.07538e-06
1.07541e-06
1.3091e-06
1.32726e-06
1.06234e-06
1.06251e-06
1.07527e-06
1.07544e-06
1.06252e-06
1.07526e-06
1.07546e-06
1.30921e-06
1.32737e-06
1.06242e-06
1.07535e-06
1.07536e-06
1.32741e-06
1.33236e-06
1.3403e-06
1.0783e-06
1.07833e-06
1.08417e-06
1.0842e-06
1.3323e-06
1.34024e-06
1.0782e-06
1.07837e-06
1.08406e-06
1.08424e-06
1.07838e-06
1.08406e-06
1.08426e-06
1.3324e-06
1.34035e-06
1.07828e-06
1.08415e-06
1.08416e-06
1.34039e-06
1.3436e-06
1.34614e-06
1.08544e-06
1.08546e-06
1.08795e-06
1.08798e-06
1.34354e-06
1.34608e-06
1.08533e-06
1.0855e-06
1.08785e-06
1.08802e-06
1.08552e-06
1.08785e-06
1.08804e-06
1.34365e-06
1.34618e-06
1.08543e-06
1.08794e-06
1.08794e-06
1.34622e-06
1.34861e-06
1.34856e-06
1.08848e-06
1.08851e-06
1.08943e-06
1.08946e-06
1.34855e-06
1.3485e-06
1.08838e-06
1.08855e-06
1.08933e-06
1.0895e-06
1.08857e-06
1.08933e-06
1.08952e-06
1.34865e-06
1.3486e-06
1.08847e-06
1.08942e-06
1.08942e-06
1.34865e-06
1.35065e-06
1.34911e-06
1.08959e-06
1.08962e-06
1.08975e-06
1.08978e-06
1.3506e-06
1.34905e-06
1.08948e-06
1.08965e-06
1.08965e-06
1.08982e-06
1.08968e-06
1.08965e-06
1.08984e-06
1.35069e-06
1.34915e-06
1.08958e-06
1.08974e-06
1.08974e-06
1.3492e-06
1.35106e-06
1.34894e-06
1.08975e-06
1.08978e-06
1.08971e-06
1.08974e-06
1.35101e-06
1.34888e-06
1.08965e-06
1.08982e-06
1.08961e-06
1.08978e-06
1.08984e-06
1.08961e-06
1.0898e-06
1.3511e-06
1.34898e-06
1.08974e-06
1.0897e-06
1.0897e-06
1.34903e-06
1.35085e-06
1.34931e-06
1.08972e-06
1.08975e-06
1.08985e-06
1.08988e-06
1.3508e-06
1.34926e-06
1.08961e-06
1.08979e-06
1.08975e-06
1.08992e-06
1.08981e-06
1.08975e-06
1.08994e-06
1.35089e-06
1.34935e-06
1.08971e-06
1.08984e-06
1.08984e-06
1.3494e-06
1.35127e-06
1.34926e-06
1.08987e-06
1.0899e-06
1.08982e-06
1.08985e-06
1.35122e-06
1.34919e-06
1.08977e-06
1.08994e-06
1.08971e-06
1.08988e-06
1.08996e-06
1.08971e-06
1.08991e-06
1.35131e-06
1.34929e-06
1.08986e-06
1.0898e-06
1.08981e-06
1.34934e-06
1.35113e-06
1.34911e-06
1.08979e-06
1.08982e-06
1.08978e-06
1.08981e-06
1.35106e-06
1.34905e-06
1.08968e-06
1.08985e-06
1.08967e-06
1.08984e-06
1.08988e-06
1.08967e-06
1.08987e-06
1.35116e-06
1.34915e-06
1.08978e-06
1.08976e-06
1.08977e-06
1.3492e-06
1.35105e-06
1.34935e-06
1.08979e-06
1.08983e-06
1.08983e-06
1.08986e-06
1.351e-06
1.34929e-06
1.08969e-06
1.08986e-06
1.08973e-06
1.0899e-06
1.08989e-06
1.08972e-06
1.08992e-06
1.3511e-06
1.34939e-06
1.08979e-06
1.08981e-06
1.08982e-06
1.34943e-06
1.35126e-06
1.34908e-06
1.08982e-06
1.08985e-06
1.08978e-06
1.08982e-06
1.3512e-06
1.34901e-06
1.08972e-06
1.08989e-06
1.08968e-06
1.08985e-06
1.08991e-06
1.08968e-06
1.08988e-06
1.35129e-06
1.34911e-06
1.08981e-06
1.08977e-06
1.08978e-06
1.34916e-06
1.35098e-06
1.34928e-06
1.08978e-06
1.08981e-06
1.08981e-06
1.08985e-06
1.35093e-06
1.34923e-06
1.08968e-06
1.08985e-06
1.08971e-06
1.08988e-06
1.08988e-06
1.08971e-06
1.08991e-06
1.35103e-06
1.34933e-06
1.08978e-06
1.0898e-06
1.08981e-06
1.34937e-06
1.35121e-06
1.34907e-06
1.08982e-06
1.08985e-06
1.08978e-06
1.08982e-06
1.35116e-06
1.34901e-06
1.08972e-06
1.08989e-06
1.08968e-06
1.08985e-06
1.08991e-06
1.08968e-06
1.08988e-06
1.35126e-06
1.34911e-06
1.08981e-06
1.08977e-06
1.08978e-06
1.34916e-06
1.35098e-06
1.34928e-06
1.08979e-06
1.08982e-06
1.08981e-06
1.08984e-06
1.35093e-06
1.34922e-06
1.08968e-06
1.08985e-06
1.08971e-06
1.08988e-06
1.08988e-06
1.0897e-06
1.0899e-06
1.35102e-06
1.34932e-06
1.08978e-06
1.08979e-06
1.0898e-06
1.34936e-06
1.35121e-06
1.34908e-06
1.08981e-06
1.08983e-06
1.08979e-06
1.08982e-06
1.35113e-06
1.34903e-06
1.08971e-06
1.08987e-06
1.08969e-06
1.08986e-06
1.0899e-06
1.08969e-06
1.08989e-06
1.35124e-06
1.34913e-06
1.0898e-06
1.08978e-06
1.08979e-06
1.34918e-06
1.35102e-06
1.34924e-06
1.08979e-06
1.08983e-06
1.08979e-06
1.08983e-06
1.35098e-06
1.34916e-06
1.08969e-06
1.08986e-06
1.08969e-06
1.08986e-06
1.08989e-06
1.08969e-06
1.08989e-06
1.35107e-06
1.34927e-06
1.08979e-06
1.08978e-06
1.08979e-06
1.34932e-06
1.35113e-06
1.34916e-06
1.08979e-06
1.08983e-06
1.08979e-06
1.08983e-06
1.35106e-06
1.34912e-06
1.08969e-06
1.08986e-06
1.08969e-06
1.08986e-06
1.08989e-06
1.08969e-06
1.08989e-06
1.35116e-06
1.34923e-06
1.08979e-06
1.08978e-06
1.08979e-06
1.34927e-06
1.35112e-06
1.34913e-06
1.08979e-06
1.08983e-06
1.08979e-06
1.08982e-06
1.35109e-06
1.34906e-06
1.08969e-06
1.08986e-06
1.08969e-06
1.08986e-06
1.08989e-06
1.08969e-06
1.08988e-06
1.35119e-06
1.34916e-06
1.08979e-06
1.08978e-06
1.08979e-06
1.34921e-06
1.35104e-06
1.34922e-06
1.08979e-06
1.08983e-06
1.08979e-06
1.08982e-06
1.35098e-06
1.34916e-06
1.08969e-06
1.08986e-06
1.08968e-06
1.08986e-06
1.08989e-06
1.08969e-06
1.08988e-06
1.35109e-06
1.34925e-06
1.08979e-06
1.08978e-06
1.08979e-06
1.34931e-06
1.35113e-06
1.34918e-06
1.08979e-06
1.08982e-06
1.08979e-06
1.08982e-06
1.35106e-06
1.34913e-06
1.08969e-06
1.08986e-06
1.08968e-06
1.08986e-06
1.08989e-06
1.08969e-06
1.08989e-06
1.35115e-06
1.34925e-06
1.08979e-06
1.08978e-06
1.08979e-06
1.34928e-06
1.35114e-06
1.34911e-06
1.08979e-06
1.08983e-06
1.08978e-06
1.08982e-06
1.35109e-06
1.34907e-06
1.08969e-06
1.08986e-06
1.08968e-06
1.08986e-06
1.08989e-06
1.08969e-06
1.08989e-06
1.3512e-06
1.34919e-06
1.08979e-06
1.08978e-06
1.08979e-06
1.34924e-06
1.35105e-06
1.34916e-06
1.08979e-06
1.08983e-06
1.08978e-06
1.08981e-06
1.35103e-06
1.34906e-06
1.08969e-06
1.08986e-06
1.08968e-06
1.08985e-06
1.0899e-06
1.08968e-06
1.08988e-06
1.35115e-06
1.34915e-06
1.0898e-06
1.08977e-06
1.08978e-06
1.34918e-06
1.35105e-06
1.34924e-06
1.08979e-06
1.08982e-06
1.08978e-06
1.08982e-06
1.35098e-06
1.34912e-06
1.08968e-06
1.08986e-06
1.08968e-06
1.08985e-06
1.08988e-06
1.08968e-06
1.08989e-06
1.35108e-06
1.34922e-06
1.08978e-06
1.08977e-06
1.08979e-06
1.34933e-06
1.35115e-06
1.34917e-06
1.08979e-06
1.08982e-06
1.08978e-06
1.08981e-06
1.35102e-06
1.34917e-06
1.08969e-06
1.08986e-06
1.08967e-06
1.08985e-06
1.08989e-06
1.08968e-06
1.08988e-06
1.35111e-06
1.34926e-06
1.08979e-06
1.08977e-06
1.08977e-06
1.34928e-06
1.35114e-06
1.34911e-06
1.08979e-06
1.08983e-06
1.08978e-06
1.08981e-06
1.35107e-06
1.34912e-06
1.08969e-06
1.08986e-06
1.08967e-06
1.08985e-06
1.08989e-06
1.08968e-06
1.08987e-06
1.35118e-06
1.34923e-06
1.08979e-06
1.08976e-06
1.08977e-06
1.34928e-06
1.35105e-06
1.34912e-06
1.08979e-06
1.08983e-06
1.08977e-06
1.0898e-06
1.35109e-06
1.34907e-06
1.08969e-06
1.08987e-06
1.08967e-06
1.08984e-06
1.08989e-06
1.08967e-06
1.08987e-06
1.35118e-06
1.34915e-06
1.08979e-06
1.08976e-06
1.08977e-06
1.34919e-06
1.35103e-06
1.34923e-06
1.0898e-06
1.08983e-06
1.08977e-06
1.0898e-06
1.35097e-06
1.3492e-06
1.0897e-06
1.08987e-06
1.08966e-06
1.08984e-06
1.08989e-06
1.08967e-06
1.08987e-06
1.35108e-06
1.34926e-06
1.08979e-06
1.08976e-06
1.08976e-06
1.34932e-06
1.35112e-06
1.34913e-06
1.0898e-06
1.08984e-06
1.08975e-06
1.08979e-06
1.35115e-06
1.34901e-06
1.0897e-06
1.08987e-06
1.08965e-06
1.08983e-06
1.0899e-06
1.08966e-06
1.08986e-06
1.35116e-06
1.34919e-06
1.0898e-06
1.08974e-06
1.08975e-06
1.34928e-06
1.35112e-06
1.3491e-06
1.0898e-06
1.08983e-06
1.08975e-06
1.08978e-06
1.35097e-06
1.34913e-06
1.0897e-06
1.08987e-06
1.08965e-06
1.08982e-06
1.08991e-06
1.08965e-06
1.08984e-06
1.35113e-06
1.34919e-06
1.0898e-06
1.08973e-06
1.08974e-06
1.34916e-06
1.351e-06
1.34921e-06
1.08981e-06
1.08984e-06
1.08974e-06
1.08977e-06
1.35103e-06
1.34914e-06
1.08971e-06
1.08988e-06
1.08964e-06
1.08981e-06
1.08991e-06
1.08964e-06
1.08984e-06
1.35108e-06
1.34927e-06
1.0898e-06
1.08973e-06
1.08973e-06
1.34926e-06
1.35114e-06
1.34912e-06
1.08982e-06
1.08985e-06
1.08972e-06
1.08976e-06
1.35109e-06
1.34905e-06
1.08972e-06
1.0899e-06
1.08962e-06
1.0898e-06
1.08992e-06
1.08962e-06
1.08982e-06
1.3512e-06
1.34913e-06
1.08981e-06
1.08971e-06
1.08972e-06
1.34929e-06
1.35106e-06
1.34916e-06
1.08984e-06
1.08987e-06
1.08971e-06
1.08974e-06
1.35101e-06
1.34908e-06
1.08974e-06
1.08991e-06
1.08961e-06
1.08978e-06
1.08994e-06
1.08961e-06
1.0898e-06
1.35108e-06
1.3492e-06
1.08983e-06
1.0897e-06
1.0897e-06
1.34918e-06
1.35107e-06
1.3492e-06
1.08987e-06
1.0899e-06
1.0897e-06
1.08973e-06
1.35101e-06
1.34912e-06
1.08977e-06
1.08994e-06
1.0896e-06
1.08978e-06
1.08996e-06
1.0896e-06
1.08979e-06
1.3511e-06
1.34925e-06
1.08986e-06
1.08969e-06
1.08969e-06
1.34923e-06
1.35112e-06
1.34893e-06
1.08991e-06
1.08994e-06
1.0893e-06
1.08933e-06
1.35105e-06
1.34887e-06
1.08981e-06
1.08999e-06
1.0892e-06
1.08937e-06
1.09e-06
1.0892e-06
1.08939e-06
1.35118e-06
1.34896e-06
1.0899e-06
1.08928e-06
1.08928e-06
1.34907e-06
1.35077e-06
1.32934e-06
1.08961e-06
1.08964e-06
1.06753e-06
1.06755e-06
1.35071e-06
1.32932e-06
1.0895e-06
1.08967e-06
1.0675e-06
1.06752e-06
1.0897e-06
1.06755e-06
1.06759e-06
1.35079e-06
1.32937e-06
1.08958e-06
1.06756e-06
1.06756e-06
1.32942e-06
1.30721e-06
1.03046e-06
1.03048e-06
1.30721e-06
1.03045e-06
1.03043e-06
5.22176e-07
5.22149e-07
5.22195e-07
1.03051e-06
1.30723e-06
1.03051e-06
1.95321e-08
3.93546e-09
1.2516e-08
1.24697e-08
1.47863e-09
6.88289e-09
1.7137e-08
7.30665e-09
1.45102e-09
3.6935e-09
7.1711e-09
8.6754e-09
5.1487e-09
3.74168e-09
8.57034e-09
7.53298e-09
1.82954e-07
5.84757e-09
2.86355e-07
1.55565e-06
3.0626e-06
7.44702e-09
1.75125e-07
6.10092e-09
2.71851e-07
8.12556e-09
7.24228e-09
7.10297e-09
7.24347e-09
8.14253e-09
7.21211e-09
7.03169e-09
1.48222e-09
9.2777e-08
5.66544e-09
8.73623e-09
1.48997e-09
6.98265e-08
5.64554e-09
1.63452e-06
3.24085e-06
1.43239e-09
4.26289e-09
1.00233e-07
4.02435e-09
1.44328e-09
4.23299e-09
7.3374e-08
2.15248e-07
2.19826e-07
4.75342e-09
1.83684e-07
1.88927e-07
1.73938e-08
5.0331e-07
1.24983e-08
7.25411e-07
6.89483e-06
9.92276e-06
1.68451e-08
4.76707e-07
1.25953e-08
6.79313e-07
8.14838e-09
7.22393e-09
7.0392e-09
7.28712e-09