/*--------------------------------*- C++ -*----------------------------------*\
| =========                 |                                                 |
| \\      /  F ield         | OpenFOAM: The Open Source CFD Toolbox           |
|  \\    /   O peration     | Version:  v2012                                 |
|   \\  /    A nd           | Website:  www.openfoam.com                      |
|    \\/     M anipulation  |                                                 |
\*---------------------------------------------------------------------------*/
FoamFile
{
    version     2.0;
    format      ascii;
    class       volScalarField;
    location    "237.5";
    object      k;
}
// * * * * * * * * * * * * * * * * * * * * * * * * * * * * * * * * * * * * * //

dimensions      [0 2 -2 0 0 0 0];


internalField   nonuniform List<scalar> 
171728
(
9.86452e-07
3.94627e-07
3.14131e-07
3.47335e-07
9.77809e-07
3.88068e-07
2.87604e-07
3.29915e-07
9.93029e-07
3.9079e-07
2.753e-07
3.15309e-07
1.0089e-06
4.06871e-07
2.69491e-07
3.02466e-07
1.02519e-06
4.39881e-07
2.65389e-07
2.90761e-07
1.04253e-06
5.03535e-07
2.64391e-07
2.79591e-07
1.05959e-06
6.08607e-07
2.72872e-07
2.70717e-07
1.07786e-06
7.87895e-07
2.94876e-07
2.63681e-07
1.09782e-06
9.15483e-07
3.38071e-07
2.57361e-07
1.1183e-06
9.07436e-07
4.08016e-07
2.51479e-07
1.13821e-06
5.83635e-07
4.73427e-07
2.45203e-07
1.15533e-06
3.49e-07
4.8939e-07
2.39347e-07
1.16843e-06
2.63331e-07
4.29135e-07
2.34733e-07
1.17858e-06
2.47103e-07
3.44606e-07
2.32222e-07
1.19494e-06
2.48807e-07
3.04594e-07
2.32846e-07
1.21816e-06
2.59523e-07
3.06527e-07
2.38e-07
1.23887e-06
2.78466e-07
3.1537e-07
2.51395e-07
1.25926e-06
3.04599e-07
3.34207e-07
2.7224e-07
1.28066e-06
3.33639e-07
3.63683e-07
3.12232e-07
1.30205e-06
4.04143e-07
4.27792e-07
3.86283e-07
1.32437e-06
4.84932e-07
5.10753e-07
5.46696e-07
1.34952e-06
5.80437e-07
6.24648e-07
6.42627e-07
1.37622e-06
8.0427e-07
8.32399e-07
1.95041e-06
1.40557e-06
1.09511e-06
9.96931e-07
1.54688e-06
1.43458e-06
1.29421e-06
1.40895e-06
2.64067e-06
1.47833e-06
1.81135e-06
1.73066e-06
5.1001e-06
1.50408e-06
2.40808e-06
2.4308e-06
5.27596e-06
1.57439e-06
2.76378e-06
2.98566e-06
8.91198e-06
1.59806e-06
3.99245e-06
3.72344e-06
9.97741e-06
1.69805e-06
4.20838e-06
4.70214e-06
1.25963e-05
1.76122e-06
6.00674e-06
5.74166e-06
1.63249e-05
1.85099e-06
6.69883e-06
6.75467e-06
1.71236e-05
1.9897e-06
8.06997e-06
8.02776e-06
2.01802e-05
2.13479e-06
9.45025e-06
9.59495e-06
2.1939e-05
2.33851e-06
1.11126e-05
1.0942e-05
2.41098e-05
2.56266e-06
1.25346e-05
1.27872e-05
2.55599e-05
2.8326e-06
1.43551e-05
1.42119e-05
2.73188e-05
3.23317e-06
1.61714e-05
1.61943e-05
2.86451e-05
3.55603e-06
1.77931e-05
1.78921e-05
2.99086e-05
4.13081e-06
1.97977e-05
1.97125e-05
3.13788e-05
4.62062e-06
2.16235e-05
2.15888e-05
3.24091e-05
5.33827e-06
2.33947e-05
2.34176e-05
3.36977e-05
6.07352e-06
2.5227e-05
2.49576e-05
3.48138e-05
6.8364e-06
2.70816e-05
2.72187e-05
3.58497e-05
7.99235e-06
2.89016e-05
2.87879e-05
3.71352e-05
8.92607e-06
3.03155e-05
3.0194e-05
3.82099e-05
1.01697e-05
3.19321e-05
3.20245e-05
3.92015e-05
1.11694e-05
3.34029e-05
3.34021e-05
4.00313e-05
1.27823e-05
3.50125e-05
3.50323e-05
4.1168e-05
1.35786e-05
3.52583e-05
3.5351e-05
4.11801e-05
1.49184e-05
3.7102e-05
3.71549e-05
4.26923e-05
1.82297e-05
4.00279e-05
4.00261e-05
4.5099e-05
2.0708e-05
4.13247e-05
4.13122e-05
4.60784e-05
2.11569e-05
4.12165e-05
4.12074e-05
4.55672e-05
1.93781e-05
3.87451e-05
3.8757e-05
4.31945e-05
1.73667e-05
3.72095e-05
3.72313e-05
4.1763e-05
1.67974e-05
3.67213e-05
3.67399e-05
4.11477e-05
1.90675e-05
3.86536e-05
3.86618e-05
4.27699e-05
2.39101e-05
4.20723e-05
4.20767e-05
4.57495e-05
2.87412e-05
4.50628e-05
4.50654e-05
4.8357e-05
3.20681e-05
4.69483e-05
4.69503e-05
5.00021e-05
3.38227e-05
4.78787e-05
4.78804e-05
5.08152e-05
3.46028e-05
4.82828e-05
4.82841e-05
5.11651e-05
3.49266e-05
4.84503e-05
4.84514e-05
5.13125e-05
3.50251e-05
4.84932e-05
4.84945e-05
5.13579e-05
3.50327e-05
4.84876e-05
4.84889e-05
5.13512e-05
3.50454e-05
4.84993e-05
4.85004e-05
5.136e-05
3.50479e-05
4.85005e-05
4.85016e-05
5.13724e-05
3.50436e-05
4.84938e-05
4.84951e-05
5.13488e-05
3.50457e-05
4.84989e-05
4.85001e-05
5.13676e-05
3.50442e-05
4.84952e-05
4.84964e-05
5.13555e-05
3.5045e-05
4.84982e-05
4.84996e-05
5.13641e-05
3.50442e-05
4.84955e-05
4.84967e-05
5.13562e-05
3.50443e-05
4.84975e-05
4.84986e-05
5.13649e-05
3.50441e-05
4.84962e-05
4.84976e-05
5.13536e-05
3.5044e-05
4.84966e-05
4.84978e-05
5.13681e-05
3.50439e-05
4.84966e-05
4.8498e-05
5.13532e-05
3.50439e-05
4.84966e-05
4.84979e-05
5.13588e-05
3.50439e-05
4.84967e-05
4.8498e-05
5.13671e-05
3.50439e-05
4.84969e-05
4.84984e-05
5.13593e-05
3.50439e-05
4.84972e-05
4.84984e-05
5.13536e-05
3.50438e-05
4.84964e-05
4.84975e-05
5.13572e-05
3.50439e-05
4.84971e-05
4.84982e-05
5.13679e-05
3.5044e-05
4.8497e-05
4.84981e-05
5.13591e-05
3.50441e-05
4.84968e-05
4.8498e-05
5.13536e-05
3.50441e-05
4.84969e-05
4.84979e-05
5.1357e-05
3.50441e-05
4.84975e-05
4.84983e-05
5.13679e-05
3.50439e-05
4.8497e-05
4.84979e-05
5.13555e-05
3.50439e-05
4.84975e-05
4.84981e-05
5.13557e-05
3.50441e-05
4.8498e-05
4.84987e-05
5.13677e-05
3.50443e-05
4.8498e-05
4.8499e-05
5.13603e-05
3.50446e-05
4.84991e-05
4.85002e-05
5.13532e-05
3.50447e-05
4.85009e-05
4.85018e-05
5.13625e-05
3.50331e-05
4.84819e-05
4.84823e-05
5.13587e-05
3.45001e-05
4.7233e-05
4.72322e-05
5.09008e-05
3.63728e-07
3.46418e-07
3.22076e-07
3.4736e-07
3.26673e-07
3.69189e-07
1.0118e-06
1.0495e-06
1.01238e-06
9.96731e-07
3.46157e-07
3.40783e-07
3.48357e-07
3.04224e-07
3.3479e-07
3.49845e-07
3.61867e-07
3.47377e-07
3.93164e-07
3.98824e-07
3.78841e-07
3.93754e-07
3.44537e-07
3.31446e-07
3.36647e-07
4.36966e-07
3.25744e-07
4.29843e-07
3.54134e-07
3.88411e-07
3.42455e-07
3.46262e-07
3.32539e-07
3.4566e-07
2.92875e-07
3.34373e-07
3.32748e-07
3.44593e-07
3.30994e-07
3.746e-07
3.92122e-07
3.62902e-07
3.86292e-07
3.2864e-07
3.19695e-07
3.22535e-07
4.27931e-07
3.14712e-07
4.23698e-07
3.387e-07
3.8945e-07
3.28064e-07
3.29883e-07
3.19528e-07
3.30795e-07
2.77335e-07
3.20922e-07
3.17773e-07
3.28111e-07
3.13783e-07
3.58312e-07
3.82382e-07
3.42101e-07
3.67409e-07
3.17218e-07
3.10189e-07
3.12385e-07
4.22495e-07
3.0636e-07
4.21755e-07
3.24939e-07
4.02768e-07
3.16845e-07
3.16988e-07
3.09033e-07
3.17897e-07
2.7084e-07
3.09367e-07
3.04544e-07
3.10763e-07
2.9853e-07
3.36325e-07
3.62092e-07
3.19479e-07
3.35222e-07
3.07861e-07
3.01984e-07
3.05263e-07
4.21951e-07
3.0449e-07
4.2583e-07
3.1436e-07
4.27231e-07
3.07192e-07
3.06909e-07
3.01742e-07
3.06686e-07
2.66166e-07
2.99531e-07
2.92794e-07
2.96142e-07
2.87441e-07
3.14466e-07
3.23561e-07
3.02771e-07
2.9544e-07
3.00349e-07
3.02111e-07
3.0459e-07
4.29e-07
3.09858e-07
4.44937e-07
3.0489e-07
4.85941e-07
2.98079e-07
3.00169e-07
2.97905e-07
2.97332e-07
2.64373e-07
2.91197e-07
2.81509e-07
2.8578e-07
2.80716e-07
2.99668e-07
2.89904e-07
2.9238e-07
2.83721e-07
3.01514e-07
3.14914e-07
3.12893e-07
4.5207e-07
3.2414e-07
4.7282e-07
2.95909e-07
5.75176e-07
2.90194e-07
2.96702e-07
2.97485e-07
2.89219e-07
2.68622e-07
2.84162e-07
2.72244e-07
2.79777e-07
2.79081e-07
2.90559e-07
2.83801e-07
2.85974e-07
3.01883e-07
3.15192e-07
3.50856e-07
3.29351e-07
4.78447e-07
3.50217e-07
4.90207e-07
2.88504e-07
7.40312e-07
2.83842e-07
2.96482e-07
3.0038e-07
2.82746e-07
2.88284e-07
2.79315e-07
2.64988e-07
2.78748e-07
2.83498e-07
2.84814e-07
3.14789e-07
2.82202e-07
3.62223e-07
3.52411e-07
4.01942e-07
3.58947e-07
4.91857e-07
3.93073e-07
4.91412e-07
2.82598e-07
8.97694e-07
2.79509e-07
2.99794e-07
3.06621e-07
2.78187e-07
3.24555e-07
2.75384e-07
2.58586e-07
2.8353e-07
2.93827e-07
2.81637e-07
3.82602e-07
2.7979e-07
4.65953e-07
4.02462e-07
4.33758e-07
4.0724e-07
4.86952e-07
4.5491e-07
4.43294e-07
2.78952e-07
9.22419e-07
2.77617e-07
3.05838e-07
3.05738e-07
2.74599e-07
3.88706e-07
2.72722e-07
2.52627e-07
2.93912e-07
3.05388e-07
2.79226e-07
5.01076e-07
2.77731e-07
6.13652e-07
4.30958e-07
4.08232e-07
4.71799e-07
4.25556e-07
5.21052e-07
3.71026e-07
2.77361e-07
6.6683e-07
2.7695e-07
3.04003e-07
2.98594e-07
2.72149e-07
4.60949e-07
2.70482e-07
2.45984e-07
3.05297e-07
3.13239e-07
2.77552e-07
6.4837e-07
2.77802e-07
7.19687e-07
3.99943e-07
3.83282e-07
5.35178e-07
3.54579e-07
5.63726e-07
3.13308e-07
2.76965e-07
3.9169e-07
2.77404e-07
2.96348e-07
2.8427e-07
2.70022e-07
4.89355e-07
2.69445e-07
2.39834e-07
3.12742e-07
3.12494e-07
2.78214e-07
7.29102e-07
2.79478e-07
7.2854e-07
3.78536e-07
3.62722e-07
5.68026e-07
3.02287e-07
5.69112e-07
2.78621e-07
2.77771e-07
2.75145e-07
2.79173e-07
2.80528e-07
2.53493e-07
2.69524e-07
4.54365e-07
2.70582e-07
2.35004e-07
3.11391e-07
2.68588e-07
2.79781e-07
7.07798e-07
2.80559e-07
5.58139e-07
3.49681e-07
2.64435e-07
5.63375e-07
2.74014e-07
4.74959e-07
2.6938e-07
2.79906e-07
2.48156e-07
2.83163e-07
2.50417e-07
2.34034e-07
2.71346e-07
3.62547e-07
2.74171e-07
2.32115e-07
2.64625e-07
2.38097e-07
2.8113e-07
5.21123e-07
2.8424e-07
4.53656e-07
2.60094e-07
2.38137e-07
4.43324e-07
2.69405e-07
3.65531e-07
2.70916e-07
2.84531e-07
2.47372e-07
2.89954e-07
2.3316e-07
2.27155e-07
2.75246e-07
3.08464e-07
2.80129e-07
2.32086e-07
2.37107e-07
2.34942e-07
2.8575e-07
4.43642e-07
2.93576e-07
4.32111e-07
2.37626e-07
2.38125e-07
3.46453e-07
2.72654e-07
3.14833e-07
2.8084e-07
2.92118e-07
2.57144e-07
2.99669e-07
2.27702e-07
2.30396e-07
2.82076e-07
3.04694e-07
2.90221e-07
2.36088e-07
2.36549e-07
2.39486e-07
2.96899e-07
4.28172e-07
3.07135e-07
4.129e-07
2.39102e-07
2.40132e-07
3.11619e-07
2.83915e-07
3.10543e-07
2.96404e-07
3.02107e-07
2.73697e-07
3.1368e-07
2.31863e-07
2.36959e-07
2.93257e-07
3.12492e-07
3.06499e-07
2.46876e-07
2.43094e-07
2.59866e-07
3.12178e-07
4.03728e-07
3.31509e-07
3.83634e-07
2.429e-07
2.46558e-07
3.11402e-07
3.01912e-07
3.23942e-07
3.17508e-07
3.17001e-07
2.90966e-07
3.30085e-07
2.40086e-07
2.54794e-07
3.11018e-07
3.25676e-07
3.28446e-07
2.63793e-07
2.64922e-07
2.96303e-07
3.37285e-07
3.83607e-07
3.65581e-07
3.76016e-07
2.57721e-07
2.79423e-07
3.28561e-07
3.26999e-07
3.56595e-07
3.51032e-07
3.35012e-07
3.29277e-07
3.56422e-07
2.60589e-07
2.93807e-07
3.35231e-07
3.57745e-07
3.62484e-07
2.9558e-07
3.14372e-07
3.55339e-07
3.77414e-07
3.73864e-07
4.12702e-07
4.04306e-07
2.80971e-07
3.49839e-07
3.70273e-07
3.57405e-07
4.03303e-07
4.14787e-07
3.62075e-07
3.79317e-07
4.05025e-07
2.99931e-07
3.87718e-07
3.71219e-07
4.18461e-07
4.15637e-07
3.55905e-07
3.73249e-07
4.78064e-07
4.31024e-07
4.32626e-07
4.79364e-07
5.01964e-07
4.02331e-07
4.96579e-07
4.22369e-07
4.22238e-07
4.73319e-07
4.71729e-07
4.19754e-07
4.69748e-07
4.56889e-07
4.09261e-07
4.41527e-07
4.31256e-07
4.74335e-07
4.7768e-07
4.62917e-07
5.09033e-07
7.36043e-07
5.0981e-07
5.19693e-07
5.99718e-07
5.40977e-07
5.13395e-07
5.29273e-07
5.00279e-07
5.02294e-07
5.91983e-07
6.14476e-07
5.18051e-07
5.20574e-07
5.74497e-07
5.05829e-07
7.57964e-07
5.30287e-07
6.08918e-07
5.84913e-07
6.51055e-07
7.72147e-07
1.07113e-06
6.20725e-07
5.74941e-07
7.63322e-07
7.91916e-07
6.12369e-07
1.32047e-06
6.10895e-07
6.33796e-07
7.56334e-07
7.07225e-07
5.73939e-07
7.98047e-07
8.47347e-07
7.87449e-07
9.25818e-07
5.8935e-07
7.26574e-07
8.67562e-07
1.74549e-06
1.23157e-06
1.65231e-06
8.19586e-07
8.01935e-07
9.71147e-07
8.97037e-07
1.32282e-06
1.38509e-06
8.17844e-07
8.20571e-07
9.69751e-07
9.72228e-07
9.39059e-07
9.02054e-07
9.57328e-07
1.11307e-06
1.75703e-06
9.35226e-07
9.64774e-07
9.50834e-07
1.53545e-06
1.76607e-06
2.58062e-06
1.04419e-06
1.08633e-06
1.30331e-06
1.2737e-06
1.94836e-06
2.72455e-06
1.03207e-06
9.98596e-07
1.29046e-06
1.30747e-06
9.71518e-07
1.26721e-06
1.25048e-06
1.77595e-06
2.89559e-06
9.80679e-07
1.32992e-06
1.26489e-06
2.58999e-06
2.77009e-06
3.67496e-06
1.35863e-06
1.30406e-06
1.64471e-06
1.70354e-06
2.71987e-06
4.37941e-06
1.35596e-06
1.40419e-06
1.64514e-06
1.62182e-06
1.27609e-06
1.7554e-06
1.78317e-06
3.14978e-06
3.59985e-06
1.29083e-06
1.61231e-06
1.80824e-06
4.42719e-06
3.99789e-06
5.87184e-06
1.85967e-06
1.75827e-06
2.2242e-06
2.24832e-06
4.68017e-06
5.06375e-06
1.85177e-06
1.73207e-06
2.21394e-06
2.31865e-06
1.99222e-06
2.17522e-06
2.12004e-06
3.98519e-06
5.70536e-06
1.98071e-06
2.32054e-06
2.09323e-06
5.30318e-06
5.97939e-06
7.82636e-06
2.25851e-06
2.43578e-06
2.96528e-06
2.61564e-06
5.66786e-06
7.32444e-06
2.24644e-06
2.42427e-06
2.93984e-06
2.62722e-06
2.13529e-06
2.64636e-06
2.89348e-06
6.24984e-06
7.01769e-06
2.13398e-06
2.65251e-06
2.91002e-06
7.98959e-06
8.90571e-06
9.69441e-06
3.25181e-06
2.74554e-06
3.45556e-06
3.87991e-06
7.37577e-06
1.11201e-05
3.24276e-06
2.95209e-06
3.46567e-06
3.70789e-06
3.19659e-06
3.84206e-06
3.50639e-06
7.24094e-06
1.06635e-05
3.19013e-06
3.68891e-06
3.50682e-06
9.95393e-06
9.60798e-06
1.289e-05
3.48814e-06
4.01252e-06
4.5623e-06
4.09231e-06
1.16083e-05
1.13645e-05
3.49679e-06
3.74358e-06
4.54183e-06
4.12854e-06
3.53363e-06
4.09045e-06
4.19647e-06
1.08169e-05
1.12245e-05
3.53596e-06
4.16285e-06
4.21294e-06
1.1498e-05
1.41253e-05
1.54884e-05
4.95619e-06
4.1936e-06
5.46349e-06
5.64931e-06
1.1446e-05
1.57157e-05
4.92839e-06
4.68328e-06
5.45264e-06
5.61487e-06
4.73957e-06
5.68343e-06
5.67264e-06
1.22182e-05
1.60607e-05
4.74956e-06
5.62891e-06
5.7215e-06
1.60838e-05
1.56092e-05
1.67943e-05
5.62402e-06
6.04642e-06
6.40231e-06
6.48675e-06
1.66265e-05
1.75717e-05
5.62341e-06
5.71641e-06
6.36385e-06
6.40176e-06
5.74781e-06
6.47705e-06
6.35333e-06
1.62535e-05
1.67633e-05
5.80089e-06
6.42317e-06
6.30513e-06
1.67224e-05
1.74127e-05
1.95785e-05
6.715e-06
6.64605e-06
7.7619e-06
7.69591e-06
1.77546e-05
1.92219e-05
6.68548e-06
6.74777e-06
7.78886e-06
7.69366e-06
6.68735e-06
7.72601e-06
7.74032e-06
1.72464e-05
1.9544e-05
6.64634e-06
7.65059e-06
7.79033e-06
1.96246e-05
2.00725e-05
2.16295e-05
8.12555e-06
8.08147e-06
9.11974e-06
9.07099e-06
1.98124e-05
2.16241e-05
8.11875e-06
8.05065e-06
9.06436e-06
9.25942e-06
8.13246e-06
9.05031e-06
9.08306e-06
2.00365e-05
2.17901e-05
8.15765e-06
9.2965e-06
9.05663e-06
2.15683e-05
2.20677e-05
2.36039e-05
9.46874e-06
9.43852e-06
1.0678e-05
1.06601e-05
2.20635e-05
2.36196e-05
9.45579e-06
9.59172e-06
1.06752e-05
1.04715e-05
9.34036e-06
1.07427e-05
1.06956e-05
2.2215e-05
2.34115e-05
9.33697e-06
1.04796e-05
1.06972e-05
2.36111e-05
2.40165e-05
2.5207e-05
1.10568e-05
1.10474e-05
1.21894e-05
1.22336e-05
2.40426e-05
2.52046e-05
1.10244e-05
1.08842e-05
1.21337e-05
1.24419e-05
1.12027e-05
1.2153e-05
1.21106e-05
2.38682e-05
2.54683e-05
1.12e-05
1.24265e-05
1.21266e-05
2.52449e-05
2.5595e-05
2.68208e-05
1.26334e-05
1.26288e-05
1.38344e-05
1.3798e-05
2.55786e-05
2.68356e-05
1.25815e-05
1.28358e-05
1.38544e-05
1.37529e-05
1.24558e-05
1.38504e-05
1.39653e-05
2.58218e-05
2.66987e-05
1.24563e-05
1.37726e-05
1.39495e-05
2.69034e-05
2.71737e-05
2.83167e-05
1.42039e-05
1.42732e-05
1.57389e-05
1.57803e-05
2.72206e-05
2.83531e-05
1.42358e-05
1.42187e-05
1.56602e-05
1.57393e-05
1.43937e-05
1.57925e-05
1.56681e-05
2.70422e-05
2.83886e-05
1.44139e-05
1.57283e-05
1.56775e-05
2.83232e-05
2.86859e-05
2.95917e-05
1.62631e-05
1.61727e-05
1.73172e-05
1.73153e-05
2.86624e-05
2.95336e-05
1.6176e-05
1.61343e-05
1.73087e-05
1.74868e-05
1.61867e-05
1.73149e-05
1.7385e-05
2.8751e-05
2.96504e-05
1.61222e-05
1.74523e-05
1.73152e-05
2.96135e-05
2.98771e-05
3.09989e-05
1.77075e-05
1.78088e-05
1.9395e-05
1.93214e-05
2.98707e-05
3.1024e-05
1.76821e-05
1.80002e-05
1.92796e-05
1.92206e-05
1.77273e-05
1.93228e-05
1.92962e-05
2.99557e-05
3.09057e-05
1.77643e-05
1.92865e-05
1.93713e-05
3.10286e-05
3.13448e-05
3.21049e-05
1.98954e-05
1.97619e-05
2.10015e-05
2.11395e-05
3.13226e-05
3.21815e-05
1.97963e-05
1.95967e-05
2.10018e-05
2.11756e-05
1.98755e-05
2.11835e-05
2.12075e-05
3.11928e-05
3.21838e-05
1.98323e-05
2.10503e-05
2.11631e-05
3.21592e-05
3.23612e-05
3.34731e-05
2.14225e-05
2.16071e-05
2.30175e-05
2.29007e-05
3.24761e-05
3.3333e-05
2.14311e-05
2.17561e-05
2.2983e-05
2.30364e-05
2.15751e-05
2.29153e-05
2.2934e-05
3.25217e-05
3.3402e-05
2.16798e-05
2.30596e-05
2.30755e-05
3.33862e-05
3.37974e-05
3.45167e-05
2.35548e-05
2.33651e-05
2.48185e-05
2.48031e-05
3.36007e-05
3.45474e-05
2.35156e-05
2.33623e-05
2.47811e-05
2.45072e-05
2.34967e-05
2.48034e-05
2.49308e-05
3.36168e-05
3.43064e-05
2.34802e-05
2.4474e-05
2.47507e-05
3.45739e-05
3.47236e-05
3.55285e-05
2.51728e-05
2.52391e-05
2.64228e-05
2.65095e-05
3.482e-05
3.56647e-05
2.51206e-05
2.49999e-05
2.63311e-05
2.66765e-05
2.52624e-05
2.65605e-05
2.63675e-05
3.46203e-05
3.58969e-05
2.51941e-05
2.66601e-05
2.65697e-05
3.55739e-05
3.58474e-05
3.69751e-05
2.69449e-05
2.69931e-05
2.84596e-05
2.84044e-05
3.59457e-05
3.69298e-05
2.68735e-05
2.72538e-05
2.84965e-05
2.86254e-05
2.6886e-05
2.85319e-05
2.83986e-05
3.6202e-05
3.6919e-05
2.70889e-05
2.84931e-05
2.85494e-05
3.68855e-05
3.72194e-05
3.78841e-05
2.88777e-05
2.87938e-05
3.00094e-05
2.98837e-05
3.71618e-05
3.7827e-05
2.89199e-05
2.89212e-05
2.9931e-05
2.97662e-05
2.87912e-05
2.99089e-05
2.99705e-05
3.7095e-05
3.76953e-05
2.89433e-05
2.97374e-05
3.00857e-05
3.79441e-05
3.81143e-05
3.90064e-05
3.04288e-05
3.03049e-05
3.174e-05
3.16368e-05
3.80664e-05
3.89646e-05
3.03127e-05
3.01867e-05
3.16548e-05
3.16742e-05
3.04422e-05
3.16267e-05
3.17858e-05
3.79637e-05
3.90493e-05
3.05212e-05
3.16907e-05
3.17412e-05
3.90392e-05
3.92202e-05
3.98447e-05
3.2044e-05
3.19556e-05
3.29494e-05
3.29314e-05
3.91729e-05
3.98341e-05
3.19918e-05
3.20228e-05
3.29373e-05
3.29689e-05
3.20528e-05
3.29022e-05
3.28968e-05
3.927e-05
3.98527e-05
3.19849e-05
3.29397e-05
3.28476e-05
3.97532e-05
4.00966e-05
4.10231e-05
3.34142e-05
3.34178e-05
3.47411e-05
3.4778e-05
4.01057e-05
4.10615e-05
3.33999e-05
3.34351e-05
3.47191e-05
3.47681e-05
3.33782e-05
3.47774e-05
3.47504e-05
4.01057e-05
4.10536e-05
3.33423e-05
3.47619e-05
3.4726e-05
4.10492e-05
4.11426e-05
4.11142e-05
3.49885e-05
3.50304e-05
3.51964e-05
3.52456e-05
4.11763e-05
4.11189e-05
3.49702e-05
3.50198e-05
3.51985e-05
3.52321e-05
3.49968e-05
3.51887e-05
3.52009e-05
4.11744e-05
4.11339e-05
3.49712e-05
3.52749e-05
3.51778e-05
4.11221e-05
4.11729e-05
4.22372e-05
3.52716e-05
3.53202e-05
3.64058e-05
3.64236e-05
4.11734e-05
4.22299e-05
3.52814e-05
3.53046e-05
3.64193e-05
3.64172e-05
3.52788e-05
3.6394e-05
3.64116e-05
4.11854e-05
4.22253e-05
3.5261e-05
3.64606e-05
3.64238e-05
4.22464e-05
4.26865e-05
4.47405e-05
3.71122e-05
3.71156e-05
3.94127e-05
3.93954e-05
4.26771e-05
4.47252e-05
3.71237e-05
3.71182e-05
3.94248e-05
3.94128e-05
3.71122e-05
3.94104e-05
3.94074e-05
4.26748e-05
4.47312e-05
3.71306e-05
3.94192e-05
3.94238e-05
4.47307e-05
4.51091e-05
4.5968e-05
4.00278e-05
4.00121e-05
4.11543e-05
4.11523e-05
4.50958e-05
4.59681e-05
4.00402e-05
4.00277e-05
4.11638e-05
4.11508e-05
4.00242e-05
4.11571e-05
4.11552e-05
4.51e-05
4.59596e-05
4.00363e-05
4.11446e-05
4.11601e-05
4.59663e-05
4.60784e-05
4.56809e-05
4.13211e-05
4.13237e-05
4.13867e-05
4.13976e-05
4.60805e-05
4.56965e-05
4.13301e-05
4.1316e-05
4.13952e-05
4.1379e-05
4.13236e-05
4.13931e-05
4.13932e-05
4.60701e-05
4.5675e-05
4.13284e-05
4.1382e-05
4.13987e-05
4.56948e-05
4.5552e-05
4.33147e-05
4.1206e-05
4.12262e-05
3.92928e-05
3.93164e-05
4.55691e-05
4.33262e-05
4.12139e-05
4.11961e-05
3.92943e-05
3.92832e-05
4.12182e-05
3.93003e-05
3.93053e-05
4.55469e-05
4.3319e-05
4.12236e-05
3.93072e-05
3.93099e-05
4.33253e-05
4.31849e-05
4.18184e-05
3.8741e-05
3.87599e-05
3.75128e-05
3.75195e-05
4.31953e-05
4.18176e-05
3.87407e-05
3.87332e-05
3.75085e-05
3.7511e-05
3.87502e-05
3.75076e-05
3.75144e-05
4.31899e-05
4.18285e-05
3.87547e-05
3.75286e-05
3.75171e-05
4.18195e-05
4.17624e-05
4.11229e-05
3.7216e-05
3.72198e-05
3.67345e-05
3.67332e-05
4.1761e-05
4.11194e-05
3.72113e-05
3.72166e-05
3.67297e-05
3.67408e-05
3.72161e-05
3.67269e-05
3.67329e-05
4.17726e-05
4.11342e-05
3.72181e-05
3.67463e-05
3.6733e-05
4.11212e-05
4.11493e-05
4.23039e-05
3.67288e-05
3.6727e-05
3.79048e-05
3.79016e-05
4.11459e-05
4.2301e-05
3.67241e-05
3.67357e-05
3.79015e-05
3.79132e-05
3.67271e-05
3.79003e-05
3.7905e-05
4.11605e-05
4.23108e-05
3.6727e-05
3.79095e-05
3.79036e-05
4.23044e-05
4.2769e-05
4.52102e-05
3.86579e-05
3.8656e-05
4.12082e-05
4.12081e-05
4.27666e-05
4.52086e-05
3.86549e-05
3.86646e-05
4.12061e-05
4.1212e-05
3.86589e-05
4.12059e-05
4.12105e-05
4.27751e-05
4.52132e-05
3.86577e-05
4.12111e-05
4.12092e-05
4.52119e-05
4.57479e-05
4.79484e-05
4.20746e-05
4.20747e-05
4.44118e-05
4.44124e-05
4.57465e-05
4.79473e-05
4.20729e-05
4.20776e-05
4.44108e-05
4.44131e-05
4.2077e-05
4.44108e-05
4.44143e-05
4.57504e-05
4.79492e-05
4.20758e-05
4.44137e-05
4.44132e-05
4.795e-05
4.83557e-05
4.97617e-05
4.50638e-05
4.50645e-05
4.65815e-05
4.65819e-05
4.83547e-05
4.97608e-05
4.50631e-05
4.50648e-05
4.65807e-05
4.65818e-05
4.50664e-05
4.65812e-05
4.6584e-05
4.83561e-05
4.97617e-05
4.50653e-05
4.65832e-05
4.65833e-05
4.97634e-05
5.00005e-05
5.0691e-05
4.69486e-05
4.69489e-05
4.77115e-05
4.77115e-05
4.99997e-05
5.06903e-05
4.69479e-05
4.69487e-05
4.77107e-05
4.77115e-05
4.69512e-05
4.77119e-05
4.77144e-05
5.00005e-05
5.06913e-05
4.69506e-05
4.77137e-05
4.77139e-05
5.06932e-05
5.0813e-05
5.10964e-05
4.7878e-05
4.7878e-05
4.82098e-05
4.82099e-05
5.08125e-05
5.10962e-05
4.78774e-05
4.78781e-05
4.82092e-05
4.82099e-05
4.7881e-05
4.8211e-05
4.82129e-05
5.08134e-05
5.10969e-05
4.78807e-05
4.82124e-05
4.82127e-05
5.10988e-05
5.11627e-05
5.12731e-05
4.82814e-05
4.82815e-05
4.84212e-05
4.84215e-05
5.11625e-05
5.12731e-05
4.8281e-05
4.82815e-05
4.84208e-05
4.84213e-05
4.82846e-05
4.84228e-05
4.84243e-05
5.11631e-05
5.12735e-05
4.82844e-05
4.84239e-05
4.84243e-05
5.12754e-05
5.13101e-05
5.13317e-05
4.84486e-05
4.8449e-05
4.84886e-05
4.8489e-05
5.13101e-05
5.13317e-05
4.84483e-05
4.84487e-05
4.84883e-05
4.84886e-05
4.84518e-05
4.84901e-05
4.84918e-05
5.13105e-05
5.1332e-05
4.84517e-05
4.84914e-05
4.84918e-05
5.1334e-05
5.13555e-05
5.13313e-05
4.84917e-05
4.84921e-05
4.84881e-05
4.84884e-05
5.13556e-05
5.13308e-05
4.84914e-05
4.84917e-05
4.84878e-05
4.84881e-05
4.84949e-05
4.84896e-05
4.84915e-05
5.13558e-05
5.13317e-05
4.84949e-05
4.8491e-05
4.84914e-05
5.13339e-05
5.13486e-05
5.1331e-05
4.84861e-05
4.84863e-05
4.84916e-05
4.84921e-05
5.13482e-05
5.13313e-05
4.84858e-05
4.84861e-05
4.84914e-05
4.84917e-05
4.84894e-05
4.84934e-05
4.84949e-05
5.13489e-05
5.13314e-05
4.84893e-05
4.84945e-05
4.84948e-05
5.13332e-05
5.13577e-05
5.1351e-05
4.84976e-05
4.8498e-05
4.85013e-05
4.85016e-05
5.13579e-05
5.13509e-05
4.84973e-05
4.84976e-05
4.8501e-05
4.85012e-05
4.85008e-05
4.85028e-05
4.85044e-05
5.13581e-05
5.13511e-05
4.85007e-05
4.85039e-05
4.85042e-05
5.13531e-05
5.13704e-05
5.1327e-05
4.8499e-05
4.84992e-05
4.84921e-05
4.84925e-05
5.13702e-05
5.13267e-05
4.84987e-05
4.84988e-05
4.84919e-05
4.84922e-05
4.8502e-05
4.84936e-05
4.84953e-05
5.13704e-05
5.13272e-05
4.85019e-05
4.8495e-05
4.84954e-05
5.13292e-05
5.13464e-05
5.13415e-05
4.84922e-05
4.84926e-05
4.84969e-05
4.84973e-05
5.13462e-05
5.13419e-05
4.8492e-05
4.84923e-05
4.84966e-05
4.8497e-05
4.84955e-05
4.84985e-05
4.85002e-05
5.13467e-05
5.13423e-05
4.84955e-05
4.84998e-05
4.85001e-05
5.13445e-05
5.13647e-05
5.13363e-05
4.84974e-05
4.84977e-05
4.8495e-05
4.84952e-05
5.1365e-05
5.13355e-05
4.84971e-05
4.84974e-05
4.84948e-05
4.84949e-05
4.85006e-05
4.84964e-05
4.8498e-05
5.13654e-05
5.13359e-05
4.85005e-05
4.84975e-05
4.84978e-05
5.13377e-05
5.1354e-05
5.13357e-05
4.84936e-05
4.8494e-05
4.8495e-05
4.84955e-05
5.13533e-05
5.13367e-05
4.84933e-05
4.84936e-05
4.84947e-05
4.84952e-05
4.84968e-05
4.84966e-05
4.84983e-05
5.13537e-05
5.13372e-05
4.84967e-05
4.84981e-05
4.84985e-05
5.13393e-05
5.13609e-05
5.13371e-05
4.84966e-05
4.84971e-05
4.84947e-05
4.8495e-05
5.13616e-05
5.13359e-05
4.84963e-05
4.84967e-05
4.84943e-05
4.84946e-05
4.84999e-05
4.84962e-05
4.84979e-05
5.1362e-05
5.13364e-05
4.85e-05
4.84973e-05
4.84977e-05
5.13386e-05
5.13546e-05
5.13375e-05
4.84938e-05
4.84943e-05
4.84955e-05
4.84961e-05
5.13536e-05
5.1339e-05
4.84934e-05
4.84938e-05
4.84953e-05
4.84957e-05
4.84971e-05
4.84973e-05
4.84989e-05
5.13541e-05
5.1339e-05
4.8497e-05
4.84984e-05
4.84987e-05
5.13407e-05
5.13619e-05
5.13337e-05
4.84958e-05
4.84963e-05
4.84945e-05
4.8495e-05
5.1363e-05
5.13321e-05
4.84957e-05
4.8496e-05
4.84941e-05
4.84944e-05
4.84992e-05
4.84961e-05
4.84979e-05
5.1363e-05
5.1333e-05
4.8499e-05
4.84975e-05
4.8498e-05
5.13355e-05
5.13516e-05
5.13424e-05
4.84946e-05
4.84951e-05
4.8495e-05
4.84957e-05
5.13504e-05
5.13438e-05
4.84941e-05
4.84945e-05
4.84946e-05
4.84951e-05
4.84979e-05
4.84966e-05
4.84983e-05
5.13512e-05
5.13439e-05
4.8498e-05
4.84977e-05
4.84981e-05
5.13456e-05
5.13652e-05
5.13283e-05
4.8495e-05
4.84954e-05
4.84948e-05
4.84954e-05
5.13659e-05
5.13285e-05
4.84946e-05
4.84951e-05
4.84942e-05
4.84948e-05
4.84983e-05
4.84964e-05
4.84982e-05
5.13661e-05
5.13289e-05
4.84981e-05
4.84978e-05
4.84982e-05
5.13309e-05
5.13494e-05
5.1342e-05
4.84948e-05
4.84958e-05
4.84948e-05
4.84951e-05
5.13515e-05
5.13387e-05
4.84943e-05
4.84949e-05
4.84944e-05
4.84948e-05
4.84982e-05
4.84964e-05
4.84981e-05
5.13518e-05
5.13389e-05
4.84983e-05
4.84977e-05
4.8498e-05
5.13418e-05
5.13588e-05
5.13403e-05
4.84948e-05
4.84953e-05
4.84949e-05
4.84957e-05
5.13557e-05
5.13424e-05
4.84944e-05
4.84949e-05
4.84943e-05
4.8495e-05
4.84981e-05
4.84966e-05
4.84982e-05
5.13558e-05
5.13432e-05
4.84981e-05
4.8498e-05
4.84983e-05
5.13446e-05
5.13638e-05
5.13295e-05
4.84949e-05
4.84955e-05
4.84949e-05
4.84955e-05
5.1365e-05
5.1331e-05
4.84944e-05
4.8495e-05
4.84944e-05
4.84951e-05
4.84982e-05
4.84967e-05
4.84982e-05
5.13654e-05
5.13324e-05
4.84983e-05
4.8498e-05
4.84982e-05
5.13338e-05
5.13536e-05
5.1333e-05
4.84952e-05
4.84959e-05
4.84944e-05
4.84951e-05
5.13564e-05
5.13316e-05
4.84946e-05
4.84953e-05
4.84941e-05
4.84948e-05
4.84984e-05
4.84964e-05
4.84982e-05
5.13582e-05
5.13314e-05
4.84985e-05
4.84977e-05
4.8498e-05
5.13335e-05
5.13512e-05
5.13436e-05
4.84948e-05
4.84956e-05
4.84948e-05
4.84954e-05
5.13508e-05
5.13395e-05
4.84944e-05
4.84953e-05
4.84942e-05
4.84947e-05
4.84992e-05
4.84966e-05
4.84979e-05
5.1351e-05
5.13389e-05
4.84989e-05
4.84977e-05
4.84978e-05
5.13403e-05
5.13621e-05
5.13386e-05
4.84947e-05
4.84953e-05
4.84946e-05
4.84954e-05
5.13563e-05
5.13432e-05
4.84943e-05
4.84947e-05
4.84942e-05
4.84948e-05
4.84977e-05
4.84968e-05
4.8499e-05
5.13558e-05
5.13439e-05
4.84975e-05
4.8498e-05
4.84989e-05
5.13454e-05
5.13628e-05
5.13291e-05
4.84949e-05
4.84956e-05
4.84944e-05
4.84954e-05
5.1364e-05
5.13384e-05
4.84946e-05
4.84949e-05
4.8494e-05
4.84946e-05
4.84994e-05
4.84963e-05
4.84979e-05
5.13649e-05
5.13364e-05
4.84992e-05
4.84973e-05
4.84977e-05
5.13341e-05
5.13523e-05
5.1335e-05
4.8495e-05
4.84958e-05
4.84946e-05
4.84949e-05
5.13634e-05
5.1328e-05
4.84946e-05
4.84951e-05
4.84943e-05
4.84946e-05
4.84985e-05
4.8496e-05
4.84979e-05
5.13617e-05
5.13301e-05
4.84983e-05
4.84973e-05
4.84977e-05
5.13321e-05
5.13531e-05
5.13394e-05
4.84951e-05
4.84957e-05
4.84943e-05
4.8495e-05
5.13501e-05
5.1342e-05
4.84947e-05
4.84953e-05
4.8494e-05
4.84943e-05
4.84986e-05
4.84964e-05
4.8498e-05
5.13533e-05
5.13343e-05
4.84983e-05
4.84972e-05
4.84977e-05
5.13398e-05
5.13561e-05
5.13443e-05
4.84951e-05
4.84956e-05
4.84945e-05
4.84947e-05
5.1359e-05
5.13365e-05
4.84948e-05
4.84951e-05
4.84941e-05
4.84944e-05
4.84986e-05
4.8496e-05
4.8498e-05
5.13523e-05
5.13437e-05
4.84982e-05
4.84972e-05
4.84977e-05
5.13451e-05
5.13666e-05
5.13273e-05
4.84955e-05
4.8496e-05
4.84934e-05
4.84942e-05
5.13613e-05
5.1333e-05
4.84951e-05
4.84954e-05
4.84932e-05
4.84938e-05
4.84991e-05
4.84955e-05
4.84973e-05
5.13645e-05
5.13354e-05
4.84988e-05
4.84963e-05
4.84969e-05
5.13315e-05
5.13489e-05
5.13442e-05
4.8495e-05
4.84954e-05
4.84939e-05
4.84944e-05
5.13516e-05
5.13425e-05
4.84947e-05
4.84951e-05
4.84936e-05
4.84938e-05
4.8499e-05
4.84957e-05
4.84972e-05
5.13569e-05
5.13443e-05
4.84986e-05
4.84964e-05
4.84967e-05
5.13379e-05
5.13628e-05
5.13329e-05
4.84954e-05
4.84961e-05
4.84932e-05
4.84936e-05
5.1365e-05
5.13292e-05
4.84951e-05
4.84955e-05
4.8493e-05
4.84933e-05
4.84988e-05
4.84951e-05
4.84972e-05
5.13649e-05
5.13332e-05
4.84984e-05
4.84959e-05
4.84967e-05
5.13459e-05
5.13593e-05
5.13309e-05
4.8496e-05
4.84964e-05
4.84927e-05
4.84933e-05
5.13544e-05
5.1333e-05
4.84958e-05
4.84961e-05
4.84925e-05
4.84927e-05
4.84996e-05
4.84944e-05
4.84962e-05
5.13596e-05
5.13316e-05
4.8499e-05
4.84953e-05
4.8496e-05
5.13336e-05
5.13502e-05
5.13429e-05
4.84963e-05
4.84967e-05
4.84927e-05
4.84931e-05
5.13517e-05
5.13429e-05
4.84961e-05
4.84963e-05
4.84926e-05
4.8493e-05
4.85e-05
4.84945e-05
4.84958e-05
5.13506e-05
5.13441e-05
4.84998e-05
4.84954e-05
4.84954e-05
5.13336e-05
5.1362e-05
5.13376e-05
4.84975e-05
4.84979e-05
4.84927e-05
4.84931e-05
5.13625e-05
5.13374e-05
4.84972e-05
4.84976e-05
4.84925e-05
4.84927e-05
4.85005e-05
4.84944e-05
4.84959e-05
5.13648e-05
5.13328e-05
4.85002e-05
4.84952e-05
4.84955e-05
5.1344e-05
5.13621e-05
5.1328e-05
4.84991e-05
4.84995e-05
4.84904e-05
4.84908e-05
5.13621e-05
5.13279e-05
4.8499e-05
4.84993e-05
4.849e-05
4.84904e-05
4.85022e-05
4.84917e-05
4.84936e-05
5.13583e-05
5.13289e-05
4.85018e-05
4.84928e-05
4.84933e-05
5.13376e-05
5.13478e-05
5.1108e-05
4.84802e-05
4.84806e-05
4.82854e-05
4.82862e-05
5.13476e-05
5.11086e-05
4.84798e-05
4.84798e-05
4.82872e-05
4.82845e-05
4.8483e-05
4.82895e-05
4.8288e-05
5.13472e-05
5.11097e-05
4.84826e-05
4.8289e-05
4.82896e-05
5.1111e-05
5.08962e-05
4.72285e-05
4.72292e-05
5.08971e-05
4.72303e-05
4.72273e-05
3.45011e-05
3.45002e-05
3.45025e-05
4.7231e-05
5.08967e-05
4.72329e-05
2.83949e-06
4.07322e-07
1.81275e-06
1.81347e-06
1.09839e-07
3.5036e-07
4.74156e-07
1.04162e-06
1.05142e-07
3.06286e-07
1.01379e-06
7.40776e-07
3.56399e-07
2.68973e-07
4.22022e-07
3.1292e-07
5.33348e-06
2.67822e-07
7.08532e-06
1.36688e-05
2.10347e-05
3.06738e-07
5.18074e-06
2.6536e-07
6.84392e-06
1.02447e-06
9.87175e-07
9.71046e-07
9.74722e-07
1.01468e-06
9.75297e-07
9.58241e-07
1.09589e-07
7.59914e-07
5.47649e-07
3.91465e-07
1.10255e-07
7.36288e-07
5.43077e-07
1.41012e-05
2.18322e-05
1.03565e-07
4.58767e-07
9.24839e-07
3.0605e-07
1.05021e-07
4.54222e-07
8.31221e-07
1.89231e-06
1.92975e-06
3.41351e-07
1.86945e-06
1.90919e-06
5.02052e-07
1.03089e-05
4.2748e-07
1.31621e-05
3.61078e-05
4.60233e-05
4.91517e-07
9.94496e-06
4.26943e-07
1.2594e-05
1.0186e-06
9.78806e-07
9.61287e-07
9.89277e-07
1.03149e-06
9.90696e-07
9.71783e-07