/*--------------------------------*- C++ -*----------------------------------*\
| =========                 |                                                 |
| \\      /  F ield         | OpenFOAM: The Open Source CFD Toolbox           |
|  \\    /   O peration     | Version:  v2012                                 |
|   \\  /    A nd           | Website:  www.openfoam.com                      |
|    \\/     M anipulation  |                                                 |
\*---------------------------------------------------------------------------*/
FoamFile
{
    version     2.0;
    format      ascii;
    class       volScalarField;
    location    "237.5";
    object      nut;
}
// * * * * * * * * * * * * * * * * * * * * * * * * * * * * * * * * * * * * * //

dimensions      [0 2 -1 0 0 0 0];


internalField   nonuniform List<scalar> 
171728
(
1.20041e-05
1.60003e-06
2.18868e-06
2.19293e-06
1.18652e-05
1.56876e-06
1.90331e-06
2.18267e-06
1.21578e-05
1.58594e-06
1.79251e-06
2.19429e-06
1.24533e-05
1.67424e-06
1.72736e-06
2.20761e-06
1.27451e-05
1.88681e-06
1.65503e-06
2.21673e-06
1.30724e-05
2.48124e-06
1.57485e-06
2.20928e-06
1.33887e-05
4.58452e-06
1.6131e-06
2.21251e-06
1.38037e-05
1.05441e-05
1.87131e-06
2.22482e-06
1.42724e-05
1.73281e-05
2.61523e-06
2.22692e-06
1.46867e-05
1.97371e-05
4.03478e-06
2.21263e-06
1.50423e-05
9.65368e-06
5.64208e-06
2.16302e-06
1.52939e-05
3.91723e-06
6.25412e-06
2.08672e-06
1.54044e-05
2.28929e-06
5.00251e-06
1.99603e-06
1.54029e-05
1.94389e-06
3.24184e-06
1.89955e-06
1.55569e-05
1.82252e-06
2.426e-06
1.80367e-06
1.58708e-05
1.77763e-06
2.26142e-06
1.7075e-06
1.61137e-05
1.77011e-06
2.13678e-06
1.63391e-06
1.63346e-05
1.73124e-06
2.0145e-06
1.54453e-06
1.65461e-05
1.71347e-06
1.93372e-06
1.51653e-06
1.67357e-05
1.85984e-06
2.09031e-06
1.61399e-06
1.69001e-05
2.11753e-06
2.19467e-06
1.95262e-06
1.70944e-05
2.09424e-06
2.54671e-06
2.04599e-06
1.72691e-05
3.16931e-06
3.15983e-06
8.38484e-06
1.74349e-05
3.97458e-06
3.46249e-06
4.68555e-06
1.74969e-05
4.3355e-06
5.0882e-06
8.73144e-06
1.77469e-05
6.40197e-06
5.74237e-06
1.7835e-05
1.74087e-05
8.52922e-06
8.72459e-06
1.6388e-05
1.79412e-05
8.66407e-06
9.94749e-06
2.8977e-05
1.7144e-05
1.46452e-05
1.29651e-05
3.18698e-05
1.76755e-05
1.30979e-05
1.5758e-05
3.60567e-05
1.73888e-05
2.13462e-05
1.99948e-05
5.19199e-05
1.71002e-05
2.27035e-05
2.29868e-05
5.00109e-05
1.73867e-05
2.75693e-05
2.70946e-05
6.02685e-05
1.74254e-05
3.20563e-05
3.31874e-05
6.47418e-05
1.80615e-05
3.83144e-05
3.69952e-05
7.15609e-05
1.85403e-05
4.26685e-05
4.42618e-05
7.54507e-05
1.93113e-05
4.89749e-05
4.82338e-05
8.11031e-05
2.12142e-05
5.56186e-05
5.55921e-05
8.50913e-05
2.18914e-05
6.03997e-05
6.11314e-05
8.89413e-05
2.48303e-05
6.76172e-05
6.73231e-05
9.41516e-05
2.65017e-05
7.38904e-05
7.35707e-05
9.72584e-05
2.98522e-05
7.9662e-05
8.0199e-05
0.000101689
3.338e-05
8.60245e-05
8.42759e-05
0.000105653
3.60537e-05
9.24376e-05
9.32627e-05
0.000108907
4.24229e-05
9.95047e-05
9.89745e-05
0.000113806
4.63597e-05
0.00010401
0.000103032
0.000117812
5.29749e-05
0.000110472
0.000110839
0.000121907
5.64147e-05
0.000115855
0.000115783
0.000124723
6.60098e-05
0.000124141
0.000124086
0.000130385
6.79328e-05
0.000123107
0.00012367
0.000129306
7.12231e-05
0.000130376
0.000130825
0.00013476
9.31785e-05
0.00014728
0.000147399
0.00014704
0.000114092
0.000156291
0.000156287
0.000153544
0.000119546
0.000158539
0.00015848
0.000154083
0.000104107
0.000143408
0.000143456
0.000142897
8.3038e-05
0.000133366
0.00013348
0.000135771
7.15934e-05
0.000128173
0.000128277
0.00013089
7.94634e-05
0.00013599
0.000136031
0.000135741
0.000109376
0.000154294
0.000154312
0.000148491
0.000145901
0.000172037
0.000172042
0.000160747
0.00017482
0.000183988
0.000183987
0.000168877
0.000191454
0.000190092
0.00019009
0.000172954
0.000199193
0.000192773
0.000192768
0.000174693
0.000202522
0.000193916
0.000193909
0.000175435
0.000203605
0.000194231
0.000194225
0.000175692
0.000203697
0.000194191
0.000194186
0.000175673
0.000203813
0.000194258
0.000194251
0.00017568
0.000203856
0.000194283
0.000194276
0.000175784
0.000203807
0.000194227
0.000194222
0.000175631
0.000203828
0.000194264
0.000194258
0.000175734
0.000203816
0.000194241
0.000194234
0.000175686
0.000203823
0.000194258
0.000194254
0.000175715
0.000203817
0.000194242
0.000194236
0.000175691
0.000203818
0.000194255
0.000194248
0.000175723
0.000203817
0.000194247
0.000194242
0.000175667
0.000203816
0.00019425
0.000194243
0.000175754
0.000203816
0.00019425
0.000194245
0.000175651
0.000203817
0.00019425
0.000194244
0.000175701
0.000203817
0.000194251
0.000194246
0.000175747
0.000203817
0.000194252
0.000194248
0.000175691
0.000203817
0.000194254
0.000194248
0.000175657
0.000203816
0.000194249
0.000194242
0.000175694
0.000203817
0.000194253
0.000194247
0.000175752
0.000203818
0.000194253
0.000194245
0.000175691
0.000203819
0.00019425
0.000194245
0.000175651
0.000203819
0.000194252
0.000194244
0.00017569
0.000203819
0.000194254
0.000194247
0.000175752
0.000203817
0.00019425
0.000194242
0.000175663
0.000203817
0.000194253
0.000194243
0.000175682
0.000203817
0.000194255
0.000194246
0.000175759
0.000203818
0.000194253
0.000194245
0.000175697
0.000203819
0.000194256
0.00019425
0.000175663
0.000203821
0.000194264
0.000194255
0.00017573
0.000203809
0.000194166
0.000194156
0.000175736
0.000205156
0.00019484
0.000194834
0.000178371
2.36001e-06
2.56215e-06
1.89608e-06
2.26388e-06
1.93125e-06
2.58496e-06
1.24807e-05
1.22016e-05
1.26106e-05
1.23924e-05
1.89313e-06
2.48188e-06
2.26156e-06
2.26637e-06
2.41976e-06
2.21252e-06
2.35817e-06
2.34728e-06
2.70337e-06
1.90983e-06
2.73327e-06
1.92915e-06
2.25915e-06
2.18985e-06
1.86939e-06
2.43697e-06
1.80965e-06
2.49025e-06
2.393e-06
1.56823e-06
2.38975e-06
2.25109e-06
2.24137e-06
2.31591e-06
1.95623e-06
2.30569e-06
2.20383e-06
2.34489e-06
2.31826e-06
2.74795e-06
1.94463e-06
2.78369e-06
2.00594e-06
2.17768e-06
2.08733e-06
1.79354e-06
2.51575e-06
1.75788e-06
2.61187e-06
2.3909e-06
1.57968e-06
2.39149e-06
2.23994e-06
2.23839e-06
2.3052e-06
1.8098e-06
2.30893e-06
2.21291e-06
2.3098e-06
2.24576e-06
2.78202e-06
2.01127e-06
2.72891e-06
1.98059e-06
2.07225e-06
1.97597e-06
1.74736e-06
2.64852e-06
1.71556e-06
2.78488e-06
2.39436e-06
1.65126e-06
2.41577e-06
2.23319e-06
2.23069e-06
2.31151e-06
1.74492e-06
2.31967e-06
2.22313e-06
2.23015e-06
2.16558e-06
2.69925e-06
1.96112e-06
2.5959e-06
1.76543e-06
1.95821e-06
1.85561e-06
1.71233e-06
2.84093e-06
1.72232e-06
3.13458e-06
2.42386e-06
1.7959e-06
2.44618e-06
2.22591e-06
2.25525e-06
2.32233e-06
1.67471e-06
2.33702e-06
2.23397e-06
2.15343e-06
2.11467e-06
2.56395e-06
1.6635e-06
2.50687e-06
1.40384e-06
1.84514e-06
1.85107e-06
1.72845e-06
3.29346e-06
1.80293e-06
3.96916e-06
2.45293e-06
2.28719e-06
2.46525e-06
2.26219e-06
2.35042e-06
2.34194e-06
1.59324e-06
2.35723e-06
2.22781e-06
2.10849e-06
2.10547e-06
2.49554e-06
1.35023e-06
2.47977e-06
1.25701e-06
1.85948e-06
2.10833e-06
1.84043e-06
4.25428e-06
1.98005e-06
5.16445e-06
2.4677e-06
3.79737e-06
2.47654e-06
2.35518e-06
2.4426e-06
2.35989e-06
1.57531e-06
2.37363e-06
2.22785e-06
2.10463e-06
2.19257e-06
2.4805e-06
1.24101e-06
2.48333e-06
1.3496e-06
2.15969e-06
2.78075e-06
2.05262e-06
5.45459e-06
2.41064e-06
6.21725e-06
2.48033e-06
8.66814e-06
2.48344e-06
2.43814e-06
2.61966e-06
2.37979e-06
1.78464e-06
2.3993e-06
2.2396e-06
2.20083e-06
2.46091e-06
2.4869e-06
1.45777e-06
2.4993e-06
1.95117e-06
2.82438e-06
3.93608e-06
2.58099e-06
6.41635e-06
3.32421e-06
6.85575e-06
2.48517e-06
1.60292e-05
2.48922e-06
2.6285e-06
2.93757e-06
2.40136e-06
2.37009e-06
2.40692e-06
2.24375e-06
2.47289e-06
2.76284e-06
2.50502e-06
2.21649e-06
2.50514e-06
3.47014e-06
4.01974e-06
5.25917e-06
3.66e-06
6.8812e-06
4.86444e-06
6.05867e-06
2.49389e-06
1.95996e-05
2.50376e-06
2.93399e-06
3.0687e-06
2.40821e-06
3.61887e-06
2.40531e-06
2.23204e-06
2.76636e-06
3.05896e-06
2.50119e-06
4.0907e-06
2.47791e-06
6.51833e-06
5.23309e-06
5.05373e-06
5.31021e-06
5.68729e-06
6.66349e-06
4.51248e-06
2.50642e-06
1.21021e-05
2.5064e-06
3.04158e-06
3.06042e-06
2.40037e-06
5.30307e-06
2.37448e-06
2.17947e-06
3.05554e-06
3.28389e-06
2.47178e-06
7.42933e-06
2.44998e-06
9.75898e-06
4.87233e-06
4.74355e-06
7.07645e-06
4.1679e-06
7.98989e-06
3.30312e-06
2.50501e-06
4.81967e-06
2.49311e-06
3.01665e-06
2.87924e-06
2.36377e-06
6.19694e-06
2.33058e-06
2.10415e-06
3.26806e-06
3.33866e-06
2.44551e-06
1.02372e-05
2.41548e-06
1.09342e-05
4.63279e-06
4.53375e-06
8.16029e-06
3.07467e-06
8.38093e-06
2.58615e-06
2.48825e-06
2.49882e-06
2.46295e-06
2.80052e-06
2.3393e-06
2.31946e-06
5.56219e-06
2.28305e-06
2.01766e-06
3.30492e-06
2.49889e-06
2.39917e-06
1.05729e-05
2.32925e-06
6.94653e-06
4.21557e-06
2.49379e-06
8.29252e-06
2.47998e-06
6.04831e-06
2.31588e-06
2.45377e-06
1.98913e-06
2.4247e-06
2.26801e-06
1.96939e-06
2.27326e-06
3.58859e-06
2.234e-06
1.92465e-06
2.40209e-06
1.91384e-06
2.30707e-06
6.14786e-06
2.23435e-06
4.72075e-06
2.39175e-06
1.95298e-06
5.28708e-06
2.28119e-06
3.59059e-06
2.17824e-06
2.41267e-06
1.84269e-06
2.37668e-06
1.93166e-06
1.77276e-06
2.21685e-06
2.5388e-06
2.1767e-06
1.83248e-06
1.85656e-06
1.71e-06
2.2103e-06
4.49492e-06
2.16644e-06
4.11466e-06
1.90098e-06
1.80636e-06
3.21628e-06
2.15461e-06
2.5207e-06
2.10792e-06
2.36163e-06
1.79883e-06
2.31205e-06
1.73641e-06
1.66855e-06
2.16064e-06
2.28263e-06
2.12407e-06
1.73738e-06
1.68174e-06
1.56115e-06
2.15511e-06
3.99701e-06
2.09452e-06
3.54152e-06
1.76965e-06
1.62207e-06
2.41202e-06
2.08996e-06
2.20303e-06
2.04382e-06
2.28528e-06
1.77097e-06
2.22585e-06
1.63455e-06
1.54732e-06
2.10771e-06
2.17058e-06
2.08328e-06
1.64911e-06
1.52353e-06
1.51777e-06
2.08099e-06
3.27371e-06
2.06391e-06
2.63714e-06
1.58412e-06
1.37244e-06
2.1364e-06
2.03767e-06
2.04647e-06
1.97007e-06
2.19718e-06
1.67005e-06
2.09163e-06
1.50815e-06
1.46344e-06
2.06994e-06
2.01342e-06
2.02771e-06
1.54613e-06
1.48225e-06
1.47185e-06
2.04005e-06
2.54447e-06
2.03696e-06
2.19027e-06
1.38353e-06
1.44976e-06
2.0061e-06
1.98007e-06
1.98615e-06
1.95086e-06
2.05773e-06
1.76672e-06
1.98914e-06
1.42329e-06
1.49123e-06
2.01469e-06
1.98143e-06
2.00807e-06
1.47692e-06
1.52171e-06
1.5523e-06
2.05197e-06
2.04747e-06
2.05392e-06
1.88327e-06
1.35985e-06
1.40258e-06
2.01997e-06
1.90095e-06
2.0052e-06
2.09653e-06
1.94373e-06
1.76071e-06
2.00594e-06
1.43322e-06
1.76724e-06
1.99507e-06
2.10878e-06
2.06574e-06
1.51814e-06
1.54115e-06
1.8475e-06
2.0918e-06
2.0184e-06
2.10906e-06
2.31247e-06
1.65855e-06
2.08062e-06
2.04977e-06
2.06897e-06
2.0886e-06
2.04255e-06
2.02563e-06
2.10357e-06
1.89299e-06
1.84246e-06
1.54889e-06
2.09193e-06
2.05318e-06
2.05183e-06
1.616e-06
1.86686e-06
2.79018e-06
2.20048e-06
2.36259e-06
2.47019e-06
2.05775e-06
2.07705e-06
1.49039e-06
2.15419e-06
2.14191e-06
2.44131e-06
2.614e-06
2.25084e-06
1.89472e-06
2.37697e-06
1.76062e-06
2.97226e-06
2.33863e-06
2.57058e-06
2.40159e-06
2.38189e-06
2.82174e-06
3.50432e-06
2.46556e-06
2.07388e-06
2.91096e-06
3.22274e-06
1.62345e-06
5.48088e-06
2.42259e-06
2.62594e-06
2.86754e-06
2.51419e-06
2.14738e-06
3.26352e-06
3.2995e-06
2.99471e-06
2.6958e-06
2.20896e-06
2.63511e-06
3.48184e-06
6.98124e-06
4.13765e-06
5.4968e-06
3.11195e-06
3.15213e-06
3.50776e-06
2.9133e-06
5.35899e-06
3.48171e-06
3.10597e-06
3.07468e-06
3.54009e-06
3.5929e-06
3.8846e-06
2.94231e-06
3.5546e-06
3.31456e-06
6.29704e-06
3.89384e-06
3.52622e-06
3.46176e-06
5.17474e-06
5.68717e-06
8.50637e-06
3.74614e-06
3.90644e-06
4.71844e-06
4.56832e-06
5.82144e-06
9.71342e-06
3.71043e-06
3.50299e-06
4.64134e-06
4.65927e-06
3.35378e-06
4.52899e-06
4.47418e-06
5.94809e-06
9.98619e-06
3.35552e-06
4.81188e-06
4.54044e-06
8.9906e-06
9.03118e-06
1.12457e-05
4.79883e-06
4.42193e-06
5.49349e-06
6.00745e-06
9.0364e-06
1.51304e-05
4.78361e-06
5.03344e-06
5.52427e-06
5.46783e-06
4.3046e-06
6.3422e-06
6.24635e-06
1.1139e-05
1.09505e-05
4.36209e-06
5.40803e-06
6.43557e-06
1.43157e-05
1.20642e-05
2.00812e-05
6.48186e-06
6.01777e-06
7.86344e-06
7.87397e-06
1.64997e-05
1.48282e-05
6.46766e-06
5.7586e-06
7.84331e-06
8.36976e-06
7.41644e-06
7.39071e-06
7.4049e-06
1.22278e-05
1.81194e-05
7.36438e-06
8.35563e-06
7.15574e-06
1.76422e-05
1.99009e-05
2.36989e-05
7.57951e-06
8.76017e-06
1.03198e-05
8.42984e-06
1.6955e-05
2.32194e-05
7.55206e-06
8.71631e-06
1.01602e-05
8.32049e-06
6.93849e-06
8.6448e-06
9.84432e-06
2.03879e-05
2.0891e-05
6.86459e-06
8.46438e-06
9.97294e-06
2.4675e-05
2.89195e-05
3.13478e-05
1.18762e-05
8.4921e-06
1.18697e-05
1.42303e-05
2.20659e-05
3.6949e-05
1.18083e-05
9.71993e-06
1.19563e-05
1.3421e-05
1.14245e-05
1.39904e-05
1.23281e-05
2.04366e-05
3.56918e-05
1.13893e-05
1.33039e-05
1.23072e-05
3.28649e-05
2.94953e-05
3.83343e-05
1.12915e-05
1.47834e-05
1.55366e-05
1.33924e-05
3.92369e-05
3.38183e-05
1.13787e-05
1.31101e-05
1.5461e-05
1.29821e-05
1.18816e-05
1.3327e-05
1.33537e-05
3.5678e-05
3.08675e-05
1.18668e-05
1.31774e-05
1.3418e-05
3.20555e-05
4.40685e-05
4.90767e-05
1.75139e-05
1.30832e-05
1.90129e-05
1.95386e-05
3.23614e-05
4.78198e-05
1.73823e-05
1.56419e-05
1.89724e-05
1.99021e-05
1.5953e-05
1.9843e-05
2.02922e-05
3.40781e-05
5.1454e-05
1.59662e-05
1.99559e-05
2.05702e-05
5.15081e-05
4.85268e-05
4.93798e-05
1.92782e-05
2.15214e-05
2.16362e-05
2.23766e-05
5.18922e-05
5.40944e-05
1.93141e-05
1.9863e-05
2.14257e-05
2.1612e-05
2.01135e-05
2.22078e-05
2.13686e-05
5.15589e-05
4.94189e-05
2.04597e-05
2.17772e-05
2.10818e-05
4.93771e-05
5.12834e-05
5.83301e-05
2.26959e-05
2.24701e-05
2.6464e-05
2.61082e-05
5.38045e-05
5.65552e-05
2.25167e-05
2.28965e-05
2.67086e-05
2.60375e-05
2.25453e-05
2.63407e-05
2.63325e-05
5.05251e-05
5.80484e-05
2.22579e-05
2.57687e-05
2.66387e-05
5.84438e-05
5.97719e-05
6.41599e-05
2.78172e-05
2.75977e-05
3.11356e-05
3.0844e-05
5.84267e-05
6.41076e-05
2.7879e-05
2.72696e-05
3.08105e-05
3.19784e-05
2.78742e-05
3.06488e-05
3.10682e-05
5.94408e-05
6.50443e-05
2.80577e-05
3.2235e-05
3.08789e-05
6.39826e-05
6.53366e-05
7.01115e-05
3.22647e-05
3.20716e-05
3.66431e-05
3.65019e-05
6.52879e-05
7.01547e-05
3.21941e-05
3.3134e-05
3.67388e-05
3.53485e-05
3.15772e-05
3.70157e-05
3.65564e-05
6.62403e-05
6.8933e-05
3.15238e-05
3.53362e-05
3.65565e-05
6.98989e-05
7.12831e-05
7.45985e-05
3.7955e-05
3.785e-05
4.16159e-05
4.19311e-05
7.13911e-05
7.46059e-05
3.78717e-05
3.6677e-05
4.13445e-05
4.30521e-05
3.87508e-05
4.14935e-05
4.12591e-05
7.02384e-05
7.59589e-05
3.87158e-05
4.30371e-05
4.1368e-05
7.47977e-05
7.56737e-05
7.9525e-05
4.32262e-05
4.32571e-05
4.72201e-05
4.68468e-05
7.55904e-05
7.95376e-05
4.29553e-05
4.45171e-05
4.74093e-05
4.66355e-05
4.21267e-05
4.70808e-05
4.78192e-05
7.69518e-05
7.89359e-05
4.21486e-05
4.6814e-05
4.76744e-05
7.97686e-05
8.04956e-05
8.41846e-05
4.82303e-05
4.85152e-05
5.38913e-05
5.43291e-05
8.0696e-05
8.44965e-05
4.85398e-05
4.81999e-05
5.35555e-05
5.39821e-05
4.93176e-05
5.44306e-05
5.34674e-05
7.97981e-05
8.45363e-05
4.9394e-05
5.38864e-05
5.36005e-05
8.41918e-05
8.53447e-05
8.80907e-05
5.6021e-05
5.56097e-05
5.89176e-05
5.87873e-05
8.53325e-05
8.77201e-05
5.55925e-05
5.52142e-05
5.9017e-05
5.97393e-05
5.54885e-05
5.88049e-05
5.93812e-05
8.56815e-05
8.84613e-05
5.51411e-05
5.96992e-05
5.86896e-05
8.81624e-05
8.87986e-05
9.275e-05
5.99162e-05
6.04882e-05
6.63788e-05
6.60349e-05
8.86958e-05
9.29361e-05
5.99459e-05
6.17006e-05
6.57925e-05
6.55664e-05
6.01379e-05
6.59496e-05
6.56439e-05
8.93082e-05
9.23963e-05
6.0084e-05
6.59651e-05
6.61194e-05
9.29509e-05
9.3915e-05
9.62289e-05
6.83158e-05
6.74928e-05
7.13754e-05
7.21617e-05
9.38316e-05
9.66588e-05
6.77841e-05
6.65084e-05
7.14567e-05
7.21136e-05
6.79794e-05
7.24212e-05
7.26078e-05
9.3181e-05
9.65314e-05
6.7732e-05
7.15538e-05
7.20678e-05
9.66464e-05
9.68538e-05
0.000101024
7.25706e-05
7.37971e-05
7.8391e-05
7.79465e-05
9.75526e-05
0.000100451
7.27271e-05
7.44936e-05
7.83187e-05
7.90182e-05
7.35636e-05
7.79987e-05
7.78237e-05
9.76629e-05
0.000100933
7.39926e-05
7.9158e-05
7.90298e-05
0.00010065
0.000102179
0.000104705
8.05238e-05
7.95077e-05
8.49124e-05
8.46691e-05
0.000101212
0.000104644
8.04177e-05
7.98003e-05
8.483e-05
8.27754e-05
8.00268e-05
8.46446e-05
8.5568e-05
0.000101453
0.000103215
8.03083e-05
8.27094e-05
8.43769e-05
0.000104967
0.000105184
0.000107661
8.58797e-05
8.61583e-05
8.96904e-05
9.02725e-05
0.000105488
0.000108412
8.56992e-05
8.44058e-05
8.91471e-05
9.0828e-05
8.64772e-05
9.04412e-05
8.94538e-05
0.00010417
0.000109465
8.58364e-05
9.09106e-05
9.04379e-05
0.000108073
0.000108715
0.000113433
9.16428e-05
9.20275e-05
9.76349e-05
9.74289e-05
0.000109298
0.000113252
9.11763e-05
9.32687e-05
9.78768e-05
9.88921e-05
9.13805e-05
9.82177e-05
9.74079e-05
0.00011059
0.00011337
9.23947e-05
9.81837e-05
9.811e-05
0.000113003
0.000114249
0.000116611
9.91776e-05
9.87908e-05
0.000102994
0.000102296
0.000113989
0.000116309
9.95179e-05
9.97653e-05
0.000102688
0.000101659
9.87726e-05
0.000102562
0.000102752
0.000113791
0.000115523
9.95035e-05
0.000101371
0.000103418
0.000116873
0.00011733
0.000121128
0.000104541
0.000103831
0.000110034
0.000109369
0.000117074
0.000120908
0.00010397
0.000103094
0.000109532
0.0001095
0.000104627
0.00010943
0.000110458
0.000116394
0.000121248
0.000105128
0.000109562
0.000110262
0.000121452
0.000121861
0.000124217
0.000111106
0.000110505
0.00011393
0.00011372
0.000121602
0.000124103
0.000110801
0.000110855
0.000113896
0.000113963
0.000111313
0.000113585
0.000113641
0.000122048
0.000124229
0.000110958
0.000113758
0.000113376
0.000123698
0.000125134
0.000129866
0.000115981
0.000115905
0.00012273
0.00012289
0.000125128
0.000130081
0.00011593
0.000116026
0.000122587
0.000122832
0.000115758
0.000122977
0.00012276
0.000125157
0.000130063
0.000115583
0.000122706
0.00012268
0.000129947
0.000130303
0.000129554
0.000123951
0.000124154
0.000123616
0.000123911
0.000130502
0.000129611
0.000123812
0.000124096
0.000123582
0.000123847
0.00012397
0.000123601
0.000123589
0.000130525
0.00012977
0.00012388
0.000124074
0.000123476
0.000129555
0.000129309
0.000132923
0.000123168
0.00012348
0.000126967
0.000127128
0.00012934
0.000132909
0.000123184
0.0001234
0.000127025
0.000127087
0.000123157
0.000126895
0.000126962
0.00012949
0.000132941
0.000123064
0.000127404
0.000127046
0.000132959
0.000134738
0.00014528
0.000130442
0.000130511
0.000143456
0.000143355
0.000134708
0.000145193
0.00013049
0.00013053
0.000143526
0.000143508
0.000130401
0.000143436
0.000143372
0.000134747
0.00014527
0.000130531
0.000143632
0.000143514
0.000145211
0.000147114
0.000152964
0.000147285
0.000147178
0.000154944
0.0001549
0.000147032
0.000152943
0.000147363
0.000147335
0.000155018
0.000154971
0.000147209
0.000154961
0.000154897
0.0001471
0.000152932
0.000147325
0.000154969
0.000154961
0.000152922
0.000153576
0.000154697
0.000156269
0.000156251
0.000158734
0.000158757
0.000153566
0.000154767
0.000156343
0.000156283
0.000158816
0.000158721
0.000156232
0.00015878
0.000158727
0.000153543
0.000154654
0.000156295
0.000158723
0.000158785
0.000154744
0.000154025
0.000143687
0.00015846
0.000158555
0.00014685
0.000146998
0.000154107
0.000143758
0.00015854
0.000158424
0.000146886
0.000146795
0.000158499
0.000146926
0.000146916
0.000153985
0.000143691
0.000158555
0.000146946
0.000146962
0.00014374
0.000142849
0.00013623
0.000143353
0.000143474
0.000135421
0.000135469
0.000142914
0.000136237
0.000143376
0.000143305
0.000135416
0.000135402
0.0001434
0.000135414
0.000135425
0.000142857
0.000136266
0.000143444
0.000135521
0.000135457
0.000136236
0.000135768
0.000131416
0.000133383
0.000133412
0.000129097
0.000129092
0.000135772
0.000131405
0.000133374
0.000133377
0.000129084
0.00012912
0.000133377
0.000129066
0.00012908
0.000135805
0.000131463
0.000133404
0.000129174
0.000129095
0.000131404
0.000130902
0.000134093
0.000128202
0.000128194
0.000132326
0.000132304
0.000130892
0.000134085
0.000128189
0.000128231
0.00013232
0.000132369
0.000128185
0.000132313
0.000132318
0.000130951
0.000134123
0.000128198
0.00013236
0.000132323
0.00013409
0.000135741
0.000146263
0.000136
0.000135986
0.000149433
0.000149428
0.000135735
0.000146262
0.000135996
0.000136034
0.000149434
0.000149449
0.000135998
0.000149435
0.000149438
0.000135768
0.000146275
0.000136004
0.000149457
0.000149445
0.000146266
0.000148488
0.000158997
0.000154291
0.000154288
0.000168032
0.000168032
0.000148488
0.000158999
0.000154295
0.000154303
0.000168041
0.000168032
0.000154298
0.000168044
0.000168039
0.000148498
0.000158997
0.000154305
0.000168051
0.000168048
0.000158999
0.000160745
0.000167901
0.000172025
0.000172025
0.000181597
0.000181595
0.000160748
0.000167904
0.000172036
0.000172022
0.000181608
0.000181588
0.000172032
0.000181614
0.000181603
0.000160745
0.000167896
0.000172041
0.000181614
0.000181614
0.000167902
0.000168876
0.000172544
0.00018397
0.000183968
0.000188969
0.000188965
0.000168879
0.000172548
0.000183982
0.00018396
0.000188982
0.000188958
0.000183976
0.000188991
0.000188977
0.000168872
0.000172541
0.000183989
0.000188989
0.000188991
0.000172548
0.00017295
0.000174556
0.000190068
0.000190064
0.000192266
0.000192262
0.000172954
0.000174562
0.000190082
0.000190057
0.000192281
0.000192255
0.000190077
0.000192294
0.000192276
0.000172947
0.000174554
0.000190092
0.00019229
0.000192292
0.000174561
0.000174688
0.000175449
0.000192744
0.00019274
0.000193693
0.00019369
0.000174694
0.000175456
0.000192759
0.000192733
0.000193708
0.000193681
0.000192754
0.000193723
0.000193702
0.000174686
0.000175446
0.00019277
0.000193717
0.000193719
0.000175454
0.000175431
0.000175778
0.000193885
0.000193882
0.000194176
0.000194174
0.000175438
0.000175786
0.0001939
0.000193873
0.000194192
0.000194164
0.000193894
0.000194207
0.000194185
0.000175428
0.000175775
0.000193911
0.0001942
0.000194202
0.000175783
0.000175687
0.000175798
0.000194201
0.000194198
0.000194179
0.000194175
0.000175695
0.000175803
0.000194217
0.000194189
0.000194195
0.000194167
0.00019421
0.000194208
0.000194189
0.000175684
0.000175795
0.000194228
0.000194204
0.000194206
0.000175804
0.000175667
0.000175747
0.000194161
0.000194158
0.000194182
0.00019418
0.000175672
0.000175757
0.000194177
0.000194149
0.000194198
0.00019417
0.000194171
0.000194214
0.000194192
0.000175664
0.000175745
0.000194189
0.000194207
0.000194209
0.000175752
0.000175675
0.000175892
0.000194226
0.000194224
0.000194266
0.000194263
0.000175684
0.0001759
0.000194242
0.000194214
0.000194281
0.000194253
0.000194236
0.000194296
0.000194274
0.000175673
0.000175888
0.000194252
0.000194289
0.00019429
0.000175895
0.000175781
0.000175747
0.000194253
0.000194249
0.000194199
0.000194197
0.000175788
0.000175752
0.000194268
0.000194239
0.000194216
0.000194187
0.00019426
0.000194229
0.000194209
0.000175777
0.000175743
0.000194277
0.000194224
0.000194226
0.00017575
0.000175627
0.000175814
0.000194197
0.000194194
0.000194228
0.000194226
0.000175632
0.000175825
0.000194213
0.000194185
0.000194244
0.000194217
0.000194206
0.00019426
0.000194239
0.000175623
0.000175815
0.000194224
0.000194254
0.000194256
0.000175824
0.000175725
0.000175815
0.000194234
0.000194231
0.000194221
0.000194217
0.000175735
0.000175818
0.000194249
0.000194222
0.000194237
0.000194208
0.000194243
0.00019425
0.000194229
0.000175725
0.000175807
0.00019426
0.000194243
0.000194244
0.000175814
0.000175687
0.000175784
0.00019421
0.000194207
0.000194215
0.000194214
0.00017569
0.000175798
0.000194226
0.000194198
0.000194231
0.000194204
0.000194219
0.000194247
0.000194225
0.00017568
0.000175788
0.000194235
0.000194242
0.000194244
0.000175796
0.000175705
0.00017582
0.000194228
0.000194226
0.000194218
0.000194215
0.000175716
0.000175821
0.000194244
0.000194216
0.000194234
0.000194205
0.000194237
0.000194248
0.000194227
0.000175707
0.000175811
0.000194256
0.000194242
0.000194243
0.00017582
0.000175692
0.000175796
0.000194211
0.000194209
0.000194221
0.00019422
0.000175692
0.000175815
0.000194226
0.000194199
0.000194237
0.00019421
0.000194221
0.000194254
0.000194231
0.000175683
0.000175802
0.000194237
0.000194247
0.000194248
0.000175807
0.000175712
0.000175797
0.000194224
0.000194222
0.000194216
0.000194214
0.000175729
0.000175792
0.000194241
0.000194213
0.000194231
0.000194203
0.000194234
0.000194247
0.000194226
0.000175716
0.000175785
0.00019425
0.000194242
0.000194244
0.000175796
0.000175667
0.000175835
0.000194215
0.000194214
0.000194219
0.000194219
0.000175663
0.000175855
0.000194231
0.000194203
0.000194234
0.000194208
0.000194226
0.00019425
0.000194229
0.000175657
0.000175842
0.000194243
0.000194243
0.000194245
0.000175847
0.000175745
0.000175749
0.000194219
0.000194217
0.000194218
0.000194217
0.00017576
0.000175755
0.000194234
0.000194207
0.000194232
0.000194206
0.000194229
0.000194249
0.000194228
0.000175748
0.000175744
0.000194245
0.000194244
0.000194246
0.000175753
0.000175638
0.000175846
0.000194218
0.000194219
0.000194218
0.000194215
0.000175657
0.000175834
0.000194232
0.000194206
0.000194233
0.000194206
0.000194228
0.000194249
0.000194228
0.000175646
0.000175821
0.000194246
0.000194243
0.000194245
0.000175835
0.000175713
0.000175823
0.000194218
0.000194216
0.00019422
0.000194219
0.000175699
0.000175846
0.000194233
0.000194206
0.000194233
0.000194207
0.000194228
0.000194251
0.000194229
0.000175687
0.000175839
0.000194245
0.000194246
0.000194247
0.000175841
0.000175735
0.000175755
0.000194219
0.000194218
0.000194219
0.000194218
0.000175752
0.000175771
0.000194234
0.000194207
0.000194234
0.000194208
0.000194228
0.000194251
0.000194229
0.000175743
0.000175765
0.000194246
0.000194246
0.000194246
0.000175771
0.000175665
0.000175788
0.000194221
0.00019422
0.000194217
0.000194216
0.00017569
0.000175783
0.000194235
0.000194209
0.000194233
0.000194206
0.000194229
0.000194249
0.000194228
0.000175689
0.000175767
0.000194247
0.000194243
0.000194245
0.000175775
0.000175659
0.000175854
0.000194218
0.000194218
0.00019422
0.000194218
0.000175659
0.000175839
0.000194233
0.000194209
0.000194234
0.000194207
0.000194235
0.000194252
0.000194228
0.000175646
0.000175823
0.00019425
0.000194245
0.000194245
0.000175828
0.000175734
0.000175809
0.000194218
0.000194217
0.000194218
0.000194219
0.000175703
0.000175857
0.000194233
0.000194205
0.000194233
0.000194207
0.000194224
0.000194253
0.000194235
0.000175688
0.000175848
0.000194241
0.000194247
0.000194251
0.000175844
0.000175726
0.000175753
0.000194219
0.000194218
0.000194217
0.000194219
0.000175752
0.000175817
0.000194235
0.000194207
0.000194232
0.000194206
0.000194237
0.00019425
0.000194228
0.000175745
0.000175791
0.000194253
0.000194242
0.000194244
0.000175772
0.000175655
0.000175801
0.000194219
0.00019422
0.000194219
0.000194215
0.00017574
0.000175751
0.000194234
0.000194208
0.000194235
0.000194206
0.00019423
0.000194248
0.000194228
0.000175715
0.000175752
0.000194246
0.000194243
0.000194244
0.000175759
0.000175672
0.00017583
0.00019422
0.000194218
0.000194218
0.000194218
0.000175647
0.000175855
0.000194235
0.000194209
0.000194233
0.000194205
0.00019423
0.000194252
0.00019423
0.000175657
0.000175792
0.000194246
0.000194243
0.000194246
0.000175824
0.000175695
0.000175849
0.000194219
0.000194218
0.00019422
0.000194215
0.000175723
0.0001758
0.000194235
0.000194207
0.000194235
0.000194207
0.00019423
0.000194249
0.00019423
0.000175663
0.000175841
0.000194246
0.000194244
0.000194246
0.000175843
0.000175756
0.000175746
0.000194222
0.00019422
0.000194213
0.000194214
0.000175716
0.000175801
0.000194237
0.000194209
0.00019423
0.000194204
0.000194233
0.000194247
0.000194226
0.000175737
0.000175794
0.000194249
0.000194239
0.000194242
0.000175755
0.000175635
0.000175865
0.000194217
0.000194215
0.000194218
0.000194216
0.000175673
0.00017585
0.000194233
0.000194206
0.000194234
0.000194205
0.000194231
0.00019425
0.000194228
0.000175689
0.000175854
0.000194247
0.000194241
0.000194242
0.000175814
0.000175745
0.000175774
0.00019422
0.000194219
0.000194215
0.000194212
0.000175757
0.000175758
0.000194236
0.000194208
0.00019423
0.000194202
0.000194229
0.000194247
0.000194229
0.00017575
0.000175768
0.000194245
0.000194239
0.000194244
0.000175857
0.000175704
0.000175772
0.000194222
0.00019422
0.000194213
0.000194212
0.000175676
0.000175796
0.000194238
0.00019421
0.000194229
0.000194201
0.000194234
0.000194245
0.000194224
0.000175698
0.000175775
0.000194248
0.000194237
0.00019424
0.000175768
0.000175651
0.000175849
0.000194221
0.000194219
0.000194215
0.000194213
0.000175669
0.000175859
0.000194237
0.000194208
0.000194232
0.000194204
0.000194233
0.000194247
0.000194224
0.000175651
0.000175851
0.00019425
0.00019424
0.000194239
0.000175783
0.000175731
0.000175808
0.000194225
0.000194223
0.000194217
0.000194215
0.000175742
0.000175816
0.000194241
0.000194214
0.000194233
0.000194204
0.000194233
0.000194249
0.000194227
0.000175746
0.000175767
0.000194249
0.000194239
0.000194242
0.000175848
0.000175725
0.000175777
0.000194231
0.000194229
0.000194269
0.000194267
0.000175734
0.000175784
0.000194248
0.00019422
0.000194285
0.000194258
0.000194241
0.000194299
0.000194279
0.000175691
0.000175779
0.000194256
0.000194294
0.000194297
0.000175824
0.000175673
0.000176842
0.000194134
0.000194132
0.00019656
0.000196562
0.000175679
0.000176848
0.00019415
0.000194119
0.00019658
0.000196555
0.000194141
0.000196589
0.000196569
0.000175667
0.00017685
0.000194158
0.000196583
0.000196589
0.000176852
0.000178348
0.000194814
0.000194816
0.000178354
0.000194831
0.000194809
0.00020516
0.00020516
0.000205169
0.000194824
0.000178348
0.000194841
3.71512e-05
3.79422e-06
2.36294e-05
2.3736e-05
7.34342e-07
1.6051e-06
1.18073e-06
1.33641e-05
6.8568e-07
2.2859e-06
1.2899e-05
5.69281e-06
2.22033e-06
1.74018e-06
1.87032e-06
1.16988e-06
1.39933e-05
1.10398e-06
1.57781e-05
1.08092e-05
1.30024e-05
1.13709e-06
1.37937e-05
1.03877e-06
1.55068e-05
1.16249e-05
1.21103e-05
1.19476e-05
1.18048e-05
1.138e-05
1.18701e-05
1.17526e-05
7.29233e-07
5.60185e-07
4.76445e-06
1.57872e-06
7.34272e-07
6.98744e-07
4.70176e-06
1.09487e-05
1.32366e-05
6.73918e-07
4.44348e-06
7.68006e-07
2.09475e-06
6.87775e-07
4.38663e-06
8.47488e-07
1.49722e-06
1.52463e-06
2.20617e-06
1.71238e-06
1.73639e-06
1.30421e-06
1.90036e-05
1.3159e-06
2.14936e-05
1.70185e-05
1.92117e-05
1.29076e-06
1.86723e-05
1.30248e-06
2.10137e-05
1.14598e-05
1.19361e-05
1.18148e-05
1.20871e-05
1.17377e-05