/*--------------------------------*- C++ -*----------------------------------*\
| =========                 |                                                 |
| \\      /  F ield         | OpenFOAM: The Open Source CFD Toolbox           |
|  \\    /   O peration     | Version:  v2012                                 |
|   \\  /    A nd           | Website:  www.openfoam.com                      |
|    \\/     M anipulation  |                                                 |
\*---------------------------------------------------------------------------*/
FoamFile
{
    version     2.0;
    format      ascii;
    class       volScalarField;
    location    "237.5";
    object      p;
}
// * * * * * * * * * * * * * * * * * * * * * * * * * * * * * * * * * * * * * //

dimensions      [0 2 -2 0 0 0 0];


internalField   nonuniform List<scalar> 
171728
(
0.00353349
0.00353242
0.00353249
0.00353327
0.00349774
0.00349624
0.0034963
0.00349922
0.00345991
0.003458
0.00345795
0.00346026
0.00341561
0.00341403
0.00341405
0.00341625
0.0033672
0.00336577
0.00336574
0.00336812
0.00331858
0.00331724
0.00331715
0.00331958
0.00327063
0.0032694
0.00326939
0.00327175
0.00322328
0.00322215
0.00322209
0.00322454
0.00317695
0.003176
0.00317596
0.00317832
0.00313167
0.00313081
0.00313076
0.00313317
0.00308724
0.00308642
0.00308646
0.00308886
0.0030436
0.00304282
0.0030429
0.0030453
0.0030005
0.00299985
0.00299985
0.00300229
0.00295781
0.00295709
0.00295717
0.00295965
0.00291544
0.00291489
0.0029149
0.00291729
0.00287334
0.00287277
0.00287316
0.00287526
0.00283162
0.00283121
0.00283132
0.0028335
0.00279024
0.00279012
0.00279002
0.00279207
0.0027492
0.0027486
0.00274882
0.002751
0.00270853
0.00270832
0.00270821
0.0027103
0.00266816
0.00266794
0.00266798
0.00267007
0.00262808
0.00262823
0.00262775
0.00262958
0.00258836
0.00258807
0.00258838
0.00259016
0.00254882
0.002549
0.00254852
0.00255039
0.00250959
0.00250937
0.00250942
0.00251104
0.00247058
0.00247044
0.00247053
0.00247303
0.00243186
0.00243189
0.00243179
0.0024333
0.00239333
0.00239345
0.00239343
0.00239593
0.00235493
0.00235484
0.00235486
0.0023566
0.00231691
0.00231714
0.00231708
0.00231971
0.00227885
0.00227897
0.00227893
0.00228099
0.00224108
0.00224125
0.00224128
0.00224334
0.00220349
0.00220372
0.00220374
0.00220582
0.00216605
0.00216631
0.00216624
0.00216831
0.00212874
0.00212897
0.00212905
0.00213099
0.0020916
0.00209184
0.00209179
0.00209382
0.00205463
0.00205486
0.00205488
0.00205684
0.0020178
0.00201795
0.00201796
0.00201994
0.00198113
0.00198129
0.00198127
0.00198326
0.00194464
0.00194474
0.00194474
0.00194674
0.0019083
0.00190834
0.00190837
0.00191037
0.00187213
0.00187213
0.00187209
0.0018741
0.00183608
0.00183608
0.00183617
0.00183813
0.00180048
0.00180035
0.0018003
0.00180238
0.00176484
0.0017647
0.00176472
0.00176674
0.00172955
0.00172941
0.00172945
0.00173139
0.00169452
0.00169437
0.00169433
0.00169638
0.00166002
0.00165975
0.00165975
0.00166173
0.00162538
0.00162511
0.00162511
0.00162711
0.00159142
0.00159137
0.00159134
0.00159329
0.0015586
0.00155807
0.00155806
0.00155987
0.00152468
0.0015239
0.0015239
0.00152575
0.00148844
0.00148809
0.00148809
0.00149017
0.00145055
0.00145057
0.00145057
0.00145283
0.00141279
0.00141346
0.00141346
0.0014158
0.00137687
0.00137731
0.00137731
0.0013795
0.00134379
0.00134382
0.00134382
0.00134573
0.00131347
0.00131272
0.00131273
0.00131428
0.00128339
0.00128244
0.00128244
0.00128384
0.00125231
0.00125156
0.00125156
0.00125308
0.00121979
0.00121937
0.00121937
0.00122109
0.00118587
0.00118566
0.00118566
0.00118755
0.0011509
0.0011508
0.0011508
0.00115278
0.00111529
0.00111524
0.00111524
0.00111728
0.00107938
0.00107935
0.00107935
0.00108142
0.00104336
0.00104334
0.00104334
0.0010454
0.00100732
0.00100729
0.00100729
0.00100936
0.000971246
0.000971217
0.000971217
0.000973289
0.000935179
0.000935152
0.000935152
0.000937222
0.00089911
0.000899081
0.000899081
0.000901153
0.000863038
0.00086301
0.00086301
0.000865082
0.000826969
0.000826943
0.000826943
0.000829014
0.000790898
0.000790869
0.000790869
0.00079294
0.000754828
0.0007548
0.0007548
0.000756872
0.000718757
0.00071873
0.00071873
0.000720801
0.000682688
0.000682659
0.000682659
0.00068473
0.000646618
0.00064659
0.00064659
0.000648663
0.000610549
0.000610522
0.000610522
0.000612592
0.000574481
0.000574452
0.000574452
0.000576523
0.000538413
0.000538386
0.000538386
0.000540457
0.000502346
0.00050232
0.00050232
0.000504391
0.000466279
0.000466249
0.000466249
0.00046832
0.000430212
0.000430184
0.000430183
0.000432255
0.000394145
0.000394118
0.000394119
0.000396189
0.000358078
0.00035805
0.00035805
0.000360122
0.000322011
0.000321982
0.000321983
0.000324052
0.000285944
0.000285918
0.000285917
0.000287985
0.000249877
0.000249849
0.00024985
0.000251919
0.00021381
0.000213781
0.000213781
0.000215846
0.000177743
0.000177717
0.000177716
0.000179776
0.000141674
0.00014165
0.00014165
0.000143703
0.000105599
0.000105578
0.000105579
0.000107615
6.95287e-05
6.95049e-05
6.95039e-05
7.15044e-05
3.42402e-05
3.36727e-05
3.36682e-05
3.55142e-05
5.94521e-06
6.70529e-06
6.70506e-06
5.07485e-06
0.00353816
0.0035358
0.00353581
0.00353809
0.00353586
0.00353583
0.00354199
0.00354189
0.00354197
0.00354196
0.00353586
0.00353566
0.00353813
0.00353581
0.0035357
0.00353805
0.00353336
0.00350401
0.0035325
0.00353243
0.00350588
0.00350587
0.00353329
0.00350404
0.00353251
0.0035325
0.00350584
0.00350583
0.00353244
0.00350583
0.00350586
0.00353334
0.003504
0.00353246
0.00350584
0.0035059
0.003504
0.00349925
0.00346577
0.00349632
0.00349626
0.00346799
0.00346813
0.00349926
0.00346579
0.00349627
0.00349634
0.00346805
0.00346799
0.00349629
0.00346816
0.00346798
0.00349923
0.00346576
0.00349626
0.00346795
0.00346799
0.00346574
0.0034603
0.00342248
0.00345795
0.00345802
0.00342556
0.00342557
0.00346032
0.00342249
0.00345795
0.00345797
0.00342557
0.00342558
0.00345795
0.00342561
0.00342557
0.0034603
0.00342248
0.00345791
0.00342551
0.00342558
0.00342247
0.00341628
0.00337461
0.00341402
0.00341403
0.00337788
0.00337801
0.0034163
0.00337463
0.00341401
0.00341403
0.0033779
0.00337793
0.00341399
0.00337795
0.00337788
0.00341629
0.0033746
0.00341397
0.00337787
0.00337789
0.00337461
0.00336813
0.00332599
0.00336572
0.00336577
0.0033292
0.00332932
0.00336817
0.00332603
0.00336574
0.00336572
0.00332924
0.00332922
0.00336574
0.00332925
0.00332921
0.00336813
0.003326
0.00336571
0.00332924
0.0033292
0.00332599
0.00331959
0.00327807
0.00331715
0.00331711
0.00328126
0.00328134
0.00331964
0.00327809
0.00331717
0.00331721
0.00328128
0.00328131
0.00331715
0.00328131
0.00328126
0.00331961
0.00327807
0.00331715
0.00328129
0.00328126
0.00327806
0.00327177
0.00323076
0.00326935
0.00326934
0.00323383
0.00323389
0.00327181
0.00323078
0.00326939
0.00326935
0.00323385
0.00323383
0.00326935
0.00323389
0.00323386
0.00327177
0.00323076
0.00326934
0.00323386
0.00323386
0.00323074
0.00322458
0.00318439
0.0032221
0.00322218
0.00318734
0.00318738
0.00322461
0.00318442
0.00322213
0.00322215
0.00318734
0.00318732
0.00322209
0.00318739
0.00318733
0.00322457
0.00318437
0.00322211
0.00318733
0.00318735
0.00318437
0.00317837
0.00313907
0.00317591
0.00317591
0.00314194
0.00314195
0.0031784
0.00313911
0.00317593
0.00317595
0.00314195
0.00314192
0.00317588
0.00314202
0.00314192
0.00317834
0.00313905
0.00317589
0.003142
0.00314192
0.00313907
0.00313317
0.00309462
0.00313074
0.00313073
0.00309742
0.00309746
0.00313322
0.00309466
0.00313076
0.00313075
0.00309743
0.00309737
0.00313073
0.00309745
0.0030974
0.00313316
0.00309465
0.00313073
0.00309745
0.00309739
0.00309463
0.00308884
0.00305095
0.00308641
0.00308641
0.00305373
0.00305368
0.00308888
0.0030509
0.00308642
0.0030864
0.00305375
0.00305367
0.0030864
0.00305367
0.00305366
0.0030889
0.00305098
0.00308642
0.00305374
0.00305368
0.003051
0.00304523
0.0030079
0.00304286
0.00304286
0.00301067
0.00301071
0.00304528
0.00300791
0.00304287
0.00304284
0.00301066
0.00301061
0.00304285
0.00301065
0.00301056
0.00304531
0.00300777
0.00304285
0.0030106
0.00301055
0.0030079
0.00300228
0.00296534
0.0029999
0.00299981
0.00296795
0.00296802
0.00300226
0.0029652
0.00299993
0.00299977
0.0029679
0.0029678
0.00299989
0.00296797
0.00296782
0.0030022
0.00296521
0.00299988
0.00296777
0.00296779
0.00296515
0.00295979
0.00292267
0.0029573
0.00295724
0.00292534
0.00292552
0.00295957
0.00292293
0.00295734
0.0029572
0.00292534
0.00292533
0.00295723
0.00292555
0.0029255
0.0029596
0.00292288
0.00295728
0.00292539
0.00292552
0.00292281
0.00291723
0.00288079
0.00291491
0.00291496
0.00288352
0.00288356
0.00291742
0.00288085
0.00291493
0.00291502
0.00288353
0.00288335
0.00291487
0.00288347
0.00288345
0.00291743
0.00288072
0.00291487
0.00288344
0.00288349
0.00288073
0.00287533
0.00283907
0.00287303
0.00287298
0.00284152
0.00284167
0.00287533
0.00283896
0.00287299
0.00287302
0.00284168
0.00284165
0.00287284
0.00284181
0.00284165
0.00287534
0.00283897
0.00287287
0.00284158
0.00284172
0.00283892
0.00283376
0.0027974
0.00283145
0.00283129
0.00280008
0.0028001
0.00283358
0.00279771
0.00283133
0.00283131
0.00280018
0.00280022
0.00283119
0.00280028
0.00280024
0.00283362
0.00279756
0.00283119
0.00280013
0.00280025
0.00279738
0.00279208
0.00275644
0.00278976
0.00278988
0.00275928
0.00275904
0.00279236
0.00275629
0.00278975
0.00279006
0.00275932
0.00275905
0.0027899
0.00275893
0.00275905
0.00279227
0.00275642
0.00278986
0.00275893
0.00275906
0.00275623
0.00275121
0.0027157
0.00274904
0.00274861
0.00271829
0.00271855
0.00275104
0.00271555
0.00274901
0.00274892
0.00271833
0.00271841
0.00274879
0.00271866
0.00271846
0.00275112
0.00271541
0.0027488
0.00271844
0.00271839
0.00271552
0.00271054
0.00267516
0.00270834
0.00270839
0.00267794
0.00267801
0.0027104
0.00267507
0.00270839
0.00270832
0.00267784
0.00267792
0.00270809
0.00267801
0.00267821
0.00271034
0.00267508
0.00270812
0.00267808
0.00267818
0.002675
0.00266999
0.0026349
0.00266797
0.00266792
0.00263786
0.00263785
0.00266993
0.0026349
0.002668
0.00266807
0.0026378
0.0026378
0.00266811
0.00263784
0.00263756
0.00267005
0.00263482
0.00266815
0.00263788
0.00263755
0.00263501
0.00262973
0.00259515
0.00262782
0.00262817
0.0025982
0.00259813
0.00263002
0.00259502
0.00262783
0.00262773
0.00259821
0.00259822
0.00262764
0.00259813
0.00259846
0.00262968
0.00259527
0.00262764
0.00259825
0.00259841
0.00259523
0.00259019
0.00255548
0.00258831
0.002588
0.00255856
0.00255879
0.00258976
0.00255602
0.00258836
0.00258838
0.00255852
0.00255838
0.00258829
0.00255877
0.0025583
0.00259037
0.00255536
0.00258832
0.00255836
0.00255825
0.00255523
0.00255057
0.00251634
0.00254877
0.00254902
0.0025193
0.00251904
0.00255118
0.00251593
0.00254875
0.00254853
0.00251931
0.00251936
0.00254868
0.00251906
0.00251915
0.00255022
0.00251663
0.0025487
0.00251936
0.00251918
0.00251623
0.00251134
0.00247754
0.0025095
0.00250935
0.00248028
0.00248032
0.00251097
0.00247774
0.0025095
0.00250941
0.00248027
0.0024803
0.00250934
0.00248031
0.00248049
0.00251142
0.00247759
0.00250934
0.00248029
0.00248046
0.00247824
0.00247277
0.00243861
0.00247061
0.00247045
0.00244138
0.00244155
0.00247246
0.00243915
0.00247061
0.00247055
0.00244138
0.00244154
0.00247059
0.00244155
0.00244132
0.00247264
0.00243912
0.00247059
0.00244154
0.00244133
0.00243804
0.00243345
0.00240107
0.00243175
0.00243186
0.00240302
0.00240294
0.00243434
0.00239976
0.00243173
0.00243179
0.00240303
0.00240301
0.00243182
0.00240293
0.00240301
0.00243409
0.00240034
0.00243185
0.00240303
0.00240299
0.00240098
0.00239609
0.00236125
0.00239333
0.00239351
0.00236448
0.00236449
0.00239508
0.00236231
0.00239333
0.00239343
0.00236448
0.00236441
0.00239333
0.00236449
0.00236443
0.00239567
0.002362
0.00239332
0.0023644
0.00236443
0.00236154
0.00235648
0.00232466
0.00235509
0.00235484
0.00232653
0.00232655
0.00235719
0.00232361
0.00235507
0.00235487
0.00232655
0.00232662
0.00235494
0.00232655
0.00232661
0.00235684
0.00232448
0.00235494
0.00232662
0.00232662
0.00232456
0.00231972
0.00228574
0.00231697
0.00231712
0.00228845
0.00228854
0.00231897
0.00228644
0.00231698
0.00231708
0.00228843
0.0022884
0.00231708
0.00228853
0.00228844
0.0023197
0.00228594
0.00231708
0.00228842
0.00228841
0.00228602
0.00228084
0.00224831
0.00227899
0.00227898
0.00225067
0.00225058
0.00228143
0.00224801
0.00227897
0.00227892
0.00225068
0.00225069
0.00227893
0.00225061
0.00225069
0.00228092
0.00224824
0.0022789
0.00225067
0.00225069
0.00224818
0.00224343
0.00221069
0.00224126
0.00224124
0.0022131
0.00221312
0.00224314
0.00221071
0.00224128
0.00224129
0.0022131
0.0022131
0.00224128
0.0022131
0.00221309
0.0022434
0.00221072
0.00224129
0.00221311
0.00221309
0.00221072
0.00220579
0.0021732
0.00220372
0.00220373
0.00217563
0.00217564
0.00220583
0.00217322
0.00220371
0.00220373
0.00217564
0.00217561
0.00220371
0.00217565
0.00217562
0.00220581
0.00217316
0.0022037
0.0021756
0.00217562
0.00217319
0.00216831
0.00213586
0.00216629
0.0021663
0.00213831
0.00213831
0.00216832
0.00213586
0.0021663
0.00216624
0.00213829
0.00213834
0.00216631
0.0021383
0.00213833
0.00216827
0.00213592
0.00216631
0.00213835
0.00213832
0.00213586
0.00213099
0.00209868
0.002129
0.00212899
0.00210111
0.0021011
0.00213098
0.00209869
0.00212898
0.00212904
0.00210112
0.00210109
0.00212899
0.0021011
0.00210108
0.00213102
0.00209865
0.00212899
0.00210108
0.00210108
0.00209869
0.00209381
0.00206169
0.00209183
0.00209183
0.00206409
0.0020641
0.00209382
0.00206169
0.00209185
0.00209179
0.00206408
0.00206409
0.00209184
0.00206411
0.00206411
0.00209379
0.0020617
0.00209185
0.00206409
0.00206411
0.00206169
0.00205684
0.00202479
0.00205487
0.00205486
0.00202719
0.00202717
0.00205681
0.0020248
0.00205485
0.00205487
0.00202719
0.00202719
0.00205486
0.00202716
0.00202718
0.00205684
0.00202481
0.00205486
0.00202719
0.00202716
0.00202478
0.00201995
0.00198812
0.00201797
0.00201796
0.00199044
0.00199045
0.00201996
0.00198811
0.00201797
0.00201797
0.00199043
0.00199042
0.00201796
0.00199045
0.00199039
0.00201996
0.00198808
0.00201796
0.00199041
0.00199043
0.00198809
0.00198328
0.00195153
0.0019813
0.00198129
0.00195385
0.00195385
0.00198327
0.00195154
0.00198129
0.00198126
0.00195386
0.00195386
0.00198127
0.00195386
0.00195388
0.00198325
0.00195158
0.00198129
0.00195386
0.00195386
0.00195155
0.00194672
0.0019152
0.00194471
0.00194473
0.00191745
0.00191743
0.00194672
0.00191517
0.00194472
0.00194476
0.00191745
0.00191745
0.00194474
0.00191742
0.0019174
0.00194676
0.00191517
0.00194474
0.00191747
0.00191744
0.00191517
0.0019104
0.0018789
0.00190839
0.00190835
0.00188117
0.00188117
0.00191036
0.00187894
0.00190839
0.00190834
0.00188117
0.00188112
0.00190835
0.00188117
0.00188119
0.00191034
0.00187892
0.00190835
0.00188112
0.00188111
0.00187891
0.0018741
0.00184289
0.00187209
0.00187213
0.00184505
0.00184507
0.00187414
0.00184288
0.00187209
0.0018721
0.00184505
0.00184515
0.00187212
0.00184506
0.00184505
0.00187413
0.00184295
0.00187207
0.00184514
0.00184507
0.00184288
0.00183813
0.00180713
0.00183609
0.00183608
0.00180929
0.00180927
0.00183811
0.00180711
0.00183609
0.00183616
0.00180932
0.00180926
0.00183609
0.00180928
0.00180931
0.00183817
0.00180706
0.00183611
0.00180925
0.00180929
0.00180713
0.00180237
0.00177145
0.00180036
0.00180035
0.00177358
0.0017736
0.00180236
0.00177148
0.00180039
0.00180031
0.00177358
0.00177356
0.00180037
0.00177359
0.00177358
0.00180231
0.00177148
0.00180036
0.00177358
0.00177361
0.00177148
0.00176672
0.00173611
0.00176469
0.00176471
0.0017382
0.00173821
0.00176674
0.00173611
0.00176468
0.00176469
0.00173819
0.00173824
0.00176469
0.00173821
0.0017382
0.00176676
0.00173614
0.00176472
0.00173826
0.00173821
0.0017361
0.00173141
0.00170103
0.0017294
0.00172941
0.00170308
0.00170308
0.00173141
0.00170103
0.00172941
0.00172944
0.00170308
0.00170306
0.00172939
0.00170307
0.00170305
0.00173143
0.00170099
0.0017294
0.00170305
0.00170306
0.00170102
0.00169638
0.00166635
0.00169437
0.00169437
0.00166841
0.0016684
0.00169638
0.00166635
0.00169436
0.00169435
0.0016684
0.00166839
0.00169436
0.00166841
0.00166843
0.00169634
0.00166634
0.00169436
0.0016684
0.00166843
0.00166637
0.00166171
0.00163171
0.00165976
0.00165975
0.00163373
0.00163372
0.00166171
0.0016317
0.00165975
0.00165975
0.00163373
0.00163372
0.00165978
0.00163371
0.00163373
0.00166171
0.00163171
0.00165977
0.00163373
0.00163372
0.00163171
0.00162711
0.00159777
0.00162512
0.00162511
0.0015997
0.00159969
0.0016271
0.00159778
0.00162512
0.00162511
0.0015997
0.00159969
0.00162512
0.00159971
0.00159971
0.0016271
0.00159776
0.00162512
0.00159968
0.00159971
0.00159778
0.00159328
0.00156438
0.00159136
0.00159135
0.00156644
0.00156644
0.00159329
0.00156438
0.00159136
0.00159135
0.00156644
0.00156644
0.00159137
0.00156645
0.00156645
0.00159328
0.00156438
0.00159137
0.00156643
0.00156644
0.00156437
0.00155987
0.0015304
0.00155807
0.00155807
0.00153257
0.00153257
0.00155988
0.0015304
0.00155807
0.00155807
0.00153256
0.00153257
0.00155807
0.00153257
0.00153257
0.00155988
0.0015304
0.00155806
0.00153256
0.00153256
0.0015304
0.00152575
0.00149508
0.0015239
0.00152391
0.00149722
0.00149722
0.00152575
0.00149508
0.0015239
0.0015239
0.00149722
0.00149721
0.0015239
0.00149722
0.00149722
0.00152575
0.00149508
0.00152389
0.00149721
0.00149722
0.00149508
0.00149017
0.00145788
0.00148809
0.00148809
0.00146001
0.00146001
0.00149017
0.00145787
0.00148809
0.00148809
0.00146001
0.00146002
0.00148809
0.00146001
0.00146001
0.00149017
0.00145788
0.00148809
0.00146002
0.00146001
0.00145788
0.00145283
0.00142077
0.00145057
0.00145057
0.0014227
0.0014227
0.00145282
0.00142077
0.00145057
0.00145057
0.0014227
0.0014227
0.00145057
0.0014227
0.0014227
0.00145283
0.00142077
0.00145057
0.0014227
0.0014227
0.00142077
0.0014158
0.00138426
0.00141346
0.00141346
0.00138615
0.00138615
0.00141579
0.00138426
0.00141346
0.00141346
0.00138615
0.00138615
0.00141346
0.00138615
0.00138615
0.0014158
0.00138426
0.00141346
0.00138615
0.00138615
0.00138426
0.0013795
0.00135009
0.00137731
0.00137731
0.00135191
0.00135191
0.0013795
0.00135009
0.00137731
0.00137731
0.00135191
0.00135191
0.00137731
0.00135191
0.00135191
0.0013795
0.00135009
0.00137731
0.00135191
0.00135191
0.00135009
0.00134573
0.00131841
0.00134382
0.00134382
0.00132035
0.00132035
0.00134573
0.00131841
0.00134382
0.00134382
0.00132035
0.00132035
0.00134382
0.00132035
0.00132035
0.00134573
0.00131841
0.00134382
0.00132035
0.00132035
0.00131841
0.00131428
0.00128794
0.00131273
0.00131272
0.00129003
0.00129003
0.00131428
0.00128794
0.00131273
0.00131272
0.00129003
0.00129003
0.00131272
0.00129003
0.00129003
0.00131428
0.00128794
0.00131273
0.00129003
0.00129003
0.00128794
0.00128384
0.0012573
0.00128244
0.00128244
0.00125938
0.00125938
0.00128384
0.0012573
0.00128244
0.00128244
0.00125938
0.00125938
0.00128244
0.00125938
0.00125938
0.00128385
0.0012573
0.00128244
0.00125938
0.00125938
0.0012573
0.00125308
0.00122552
0.00125156
0.00125156
0.00122756
0.00122756
0.00125308
0.00122552
0.00125156
0.00125156
0.00122756
0.00122756
0.00125156
0.00122756
0.00122756
0.00125308
0.00122552
0.00125156
0.00122756
0.00122756
0.00122552
0.00122109
0.00119219
0.00121937
0.00121937
0.00119422
0.00119422
0.00122109
0.00119219
0.00121937
0.00121937
0.00119422
0.00119422
0.00121937
0.00119422
0.00119422
0.00122109
0.00119219
0.00121937
0.00119422
0.00119422
0.00119219
0.00118755
0.00115755
0.00118566
0.00118566
0.00115959
0.00115959
0.00118755
0.00115755
0.00118566
0.00118566
0.00115959
0.0011596
0.00118566
0.0011596
0.00115959
0.00118755
0.00115755
0.00118566
0.0011596
0.0011596
0.00115755
0.00115278
0.00112212
0.0011508
0.0011508
0.00112417
0.00112417
0.00115278
0.00112212
0.0011508
0.0011508
0.00112417
0.00112417
0.0011508
0.00112417
0.00112417
0.00115279
0.00112212
0.0011508
0.00112417
0.00112417
0.00112212
0.00111728
0.00108629
0.00111524
0.00111524
0.00108834
0.00108834
0.00111728
0.00108629
0.00111524
0.00111524
0.00108834
0.00108834
0.00111524
0.00108834
0.00108834
0.00111728
0.00108629
0.00111524
0.00108834
0.00108834
0.00108629
0.00108142
0.00105029
0.00107935
0.00107935
0.00105234
0.00105234
0.00108142
0.00105029
0.00107935
0.00107935
0.00105234
0.00105234
0.00107935
0.00105234
0.00105234
0.00108142
0.00105029
0.00107935
0.00105234
0.00105234
0.00105029
0.0010454
0.00101424
0.00104334
0.00104334
0.0010163
0.0010163
0.0010454
0.00101424
0.00104334
0.00104334
0.0010163
0.0010163
0.00104334
0.0010163
0.0010163
0.0010454
0.00101424
0.00104334
0.0010163
0.0010163
0.00101424
0.00100936
0.000978176
0.00100729
0.00100729
0.000980236
0.000980236
0.00100936
0.000978176
0.00100729
0.00100729
0.000980236
0.000980236
0.00100729
0.000980236
0.000980236
0.00100936
0.000978176
0.00100729
0.000980236
0.000980236
0.000978176
0.000973289
0.000942107
0.000971217
0.000971217
0.000944167
0.000944167
0.000973289
0.000942108
0.000971217
0.000971217
0.000944167
0.000944167
0.000971217
0.000944167
0.000944167
0.000973289
0.000942107
0.000971217
0.000944167
0.000944167
0.000942107
0.000937222
0.00090604
0.000935152
0.000935152
0.000908099
0.000908099
0.000937222
0.00090604
0.000935152
0.000935152
0.000908099
0.000908099
0.000935152
0.000908099
0.000908099
0.000937222
0.000906039
0.000935152
0.000908099
0.000908099
0.000906039
0.000901153
0.000869967
0.000899081
0.000899081
0.000872028
0.000872028
0.000901153
0.000869968
0.000899081
0.000899081
0.000872028
0.000872028
0.000899081
0.000872028
0.000872029
0.000901153
0.000869968
0.000899081
0.000872029
0.000872029
0.000869968
0.000865081
0.0008339
0.00086301
0.00086301
0.00083596
0.00083596
0.000865081
0.000833901
0.00086301
0.00086301
0.00083596
0.00083596
0.00086301
0.00083596
0.000835961
0.000865081
0.0008339
0.00086301
0.000835961
0.000835961
0.0008339
0.000829014
0.000797826
0.000826943
0.000826943
0.000799886
0.000799885
0.000829014
0.000797826
0.000826943
0.000826943
0.000799885
0.000799886
0.000826943
0.000799886
0.000799886
0.000829014
0.000797826
0.000826943
0.000799886
0.000799886
0.000797826
0.00079294
0.000761759
0.000790869
0.000790868
0.000763819
0.000763819
0.000792939
0.000761759
0.000790868
0.000790868
0.000763819
0.000763819
0.000790869
0.000763819
0.000763819
0.00079294
0.000761759
0.000790869
0.000763819
0.000763819
0.000761759
0.000756872
0.000725686
0.0007548
0.0007548
0.000727747
0.000727747
0.000756872
0.000725686
0.0007548
0.0007548
0.000727746
0.000727746
0.0007548
0.000727747
0.000727747
0.000756872
0.000725686
0.0007548
0.000727747
0.000727747
0.000725686
0.0007208
0.000689617
0.00071873
0.00071873
0.000691676
0.000691676
0.0007208
0.000689617
0.00071873
0.00071873
0.000691676
0.000691676
0.00071873
0.000691676
0.000691676
0.0007208
0.000689617
0.00071873
0.000691676
0.000691676
0.000689617
0.000684731
0.000653548
0.000682659
0.000682659
0.000655608
0.000655608
0.00068473
0.000653549
0.000682659
0.000682659
0.000655607
0.000655608
0.000682659
0.000655608
0.000655608
0.00068473
0.000653548
0.000682659
0.000655608
0.000655608
0.000653548
0.000648662
0.000617477
0.00064659
0.00064659
0.000619538
0.000619538
0.000648662
0.000617478
0.00064659
0.00064659
0.000619539
0.000619538
0.00064659
0.000619538
0.000619538
0.000648663
0.000617477
0.00064659
0.000619538
0.000619538
0.000617477
0.000612592
0.00058141
0.000610522
0.000610522
0.00058347
0.000583469
0.000612592
0.00058141
0.000610521
0.000610522
0.00058347
0.00058347
0.000610522
0.00058347
0.00058347
0.000612592
0.00058141
0.000610522
0.00058347
0.00058347
0.00058141
0.000576524
0.000545344
0.000574452
0.000574452
0.000547403
0.000547403
0.000576523
0.000545344
0.000574453
0.000574452
0.000547403
0.000547403
0.000574453
0.000547403
0.000547403
0.000576523
0.000545344
0.000574452
0.000547403
0.000547403
0.000545344
0.000540458
0.000509274
0.000538386
0.000538386
0.000511334
0.000511334
0.000540457
0.000509275
0.000538385
0.000538386
0.000511334
0.000511335
0.000538386
0.000511334
0.000511335
0.000540457
0.000509275
0.000538386
0.000511334
0.000511334
0.000509275
0.000504389
0.000473206
0.000502319
0.000502319
0.000475266
0.000475265
0.00050439
0.000473206
0.000502319
0.000502319
0.000475266
0.000475266
0.00050232
0.000475265
0.000475265
0.00050439
0.000473206
0.00050232
0.000475265
0.000475265
0.000473206
0.00046832
0.000437142
0.00046625
0.00046625
0.000439201
0.0004392
0.00046832
0.000437141
0.00046625
0.00046625
0.0004392
0.0004392
0.00046625
0.000439202
0.000439202
0.00046832
0.000437141
0.000466249
0.000439202
0.000439202
0.000437142
0.000432255
0.000401075
0.000430184
0.000430182
0.000403134
0.000403135
0.000432253
0.000401075
0.000430184
0.000430183
0.000403133
0.000403134
0.000430184
0.000403134
0.000403133
0.000432253
0.000401075
0.000430184
0.000403134
0.000403133
0.000401075
0.000396189
0.000365006
0.000394118
0.000394117
0.000367066
0.000367067
0.000396188
0.000365008
0.000394117
0.000394117
0.000367066
0.000367067
0.000394119
0.000367065
0.000367065
0.000396188
0.000365008
0.000394119
0.000367065
0.000367065
0.000365007
0.00036012
0.000328939
0.00035805
0.000358051
0.000330999
0.000330999
0.000360122
0.000328939
0.000358049
0.000358051
0.000330999
0.000330999
0.00035805
0.000330999
0.000330999
0.000360122
0.000328939
0.00035805
0.000330999
0.000330999
0.000328939
0.000324052
0.000292873
0.000321984
0.000321983
0.000294931
0.000294932
0.000324051
0.000292874
0.000321983
0.000321984
0.000294931
0.000294931
0.000321983
0.000294933
0.000294933
0.000324053
0.000292873
0.000321982
0.000294932
0.000294933
0.000292873
0.000287985
0.000256806
0.000285917
0.000285917
0.000258863
0.000258862
0.000287986
0.000256805
0.000285916
0.000285916
0.000258863
0.000258863
0.000285917
0.000258862
0.000258863
0.000287985
0.000256805
0.000285917
0.000258863
0.000258863
0.000256806
0.000251917
0.000220738
0.00024985
0.000249849
0.000222796
0.000222797
0.000251916
0.00022074
0.000249849
0.000249848
0.000222796
0.000222797
0.000249851
0.000222796
0.000222795
0.000251917
0.000220738
0.000249851
0.000222796
0.000222794
0.000220737
0.000215846
0.000184675
0.000213781
0.000213781
0.00018673
0.00018673
0.000215846
0.000184675
0.000213781
0.000213781
0.00018673
0.00018673
0.000213781
0.00018673
0.00018673
0.000215846
0.000184675
0.000213781
0.00018673
0.00018673
0.000184673
0.000179778
0.000148608
0.000177717
0.000177717
0.00015066
0.00015066
0.000179778
0.000148607
0.000177717
0.000177717
0.000150659
0.000150659
0.000177716
0.000150659
0.000150661
0.000179778
0.000148607
0.000177715
0.00015066
0.000150661
0.000148609
0.000143702
0.00011254
0.00014165
0.00014165
0.000114588
0.000114588
0.000143701
0.000112541
0.00014165
0.00014165
0.000114587
0.000114588
0.000141651
0.000114588
0.000114587
0.000143702
0.00011254
0.000141651
0.000114587
0.000114587
0.00011254
0.000107613
7.64692e-05
0.000105579
0.000105579
7.85105e-05
7.85105e-05
0.000107613
7.64705e-05
0.000105579
0.000105579
7.851e-05
7.85098e-05
0.000105579
7.85121e-05
7.85106e-05
0.000107613
7.64692e-05
0.000105579
7.85098e-05
7.85094e-05
7.64681e-05
7.1505e-05
4.04471e-05
6.95044e-05
6.95044e-05
4.24857e-05
4.24866e-05
7.15049e-05
4.04488e-05
6.9504e-05
6.95041e-05
4.24833e-05
4.24824e-05
6.95036e-05
4.24851e-05
4.24837e-05
7.15058e-05
4.04445e-05
6.95033e-05
4.2482e-05
4.24819e-05
4.04443e-05
3.55177e-05
8.25338e-06
3.36729e-05
3.36737e-05
1.12301e-05
1.123e-05
3.55187e-05
8.25357e-06
3.36713e-05
3.36692e-05
1.12313e-05
1.12253e-05
3.36697e-05
1.12302e-05
1.12244e-05
3.5515e-05
8.25092e-06
3.36678e-05
1.1229e-05
1.12299e-05
8.25007e-06
5.07658e-06
6.70453e-06
6.70442e-06
5.07773e-06
6.70468e-06
6.7013e-06
5.94503e-06
5.94465e-06
5.94403e-06
6.70117e-06
5.07619e-06
6.70486e-06
0.00354522
0.00354794
0.0035467
0.00354671
0.00357341
0.003548
0.00357721
0.00354809
0.00357348
0.003548
0.00354807
0.00357696
0.00355873
0.00358031
0.00358007
0.00351759
0.00353121
0.00353501
0.0035099
0.00350778
0.00351324
0.00351759
0.00353114
0.003535
0.00350984
0.0035334
0.00353347
0.00353348
0.00350679
0.00350671
0.00350677
0.00350681
0.00351704
0.00352896
0.00353396
0.00352459
0.00353613
0.00351409
0.00352488
0.00350791
0.00351322
0.00351709
0.00353404
0.00352912
0.00352475
0.0035362
0.00352495
0.00351432
0.00353497
0.00353498
0.00352196
0.00351416
0.0035142
0.0034902
0.00350419
0.00350393
0.00348808
0.00350142
0.0034871
0.00349019
0.00350411
0.00350391
0.00348809
0.00349769
0.00349771
0.00349778
0.00346988
0.00346984
0.00346985
0.00346991
0.00348784
0.0035026
0.00349625
0.0034872
0.00350109
0.00348831
0.00348708
0.00350117
0.0034871
0.00348782
0.00349625
0.00350263
0.0034871
0.00350109
0.00348704
0.00348831
0.00350435
0.00350436
0.0034855
0.00348875
0.00348873
0.00344778
0.0034625
0.00346344
0.00344642
0.00346137
0.0034455
0.00344776
0.00346247
0.00346342
0.00344646
0.00345987
0.00345988
0.00345994
0.00342727
0.0034272
0.00342724
0.0034273
0.00344652
0.00346208
0.00345806
0.00344769
0.00346107
0.00344692
0.00344759
0.00346135
0.0034455
0.00344652
0.00345801
0.00346197
0.00344761
0.00346101
0.00344756
0.00344692
0.00346275
0.00346274
0.0034449
0.00344681
0.0034468
0.00340117
0.00341778
0.00341934
0.00339983
0.00341708
0.0033993
0.00340121
0.00341777
0.00341924
0.00339982
0.00341555
0.0034156
0.00341565
0.0033794
0.00337936
0.00337938
0.00337944
0.00340037
0.00341763
0.00341397
0.00340217
0.00341706
0.00340054
0.00340214
0.00341718
0.00339928
0.00340037
0.00341396
0.00341763
0.00340209
0.00341706
0.0034021
0.00340056
0.00341788
0.00341787
0.00339883
0.00339997
0.00339996
0.00335213
0.00336927
0.00337055
0.00335095
0.00336885
0.00335071
0.00335216
0.00336927
0.00337059
0.00335095
0.00336715
0.00336716
0.00336723
0.00333066
0.00333063
0.00333065
0.00333069
0.0033517
0.00336933
0.00336573
0.00335355
0.00336896
0.00335167
0.00335352
0.00336882
0.00335063
0.0033517
0.00336571
0.00336931
0.00335348
0.00336894
0.00335349
0.00335164
0.00336934
0.00336932
0.00335024
0.00335107
0.00335107
0.00330332
0.00332048
0.00332143
0.00330243
0.00332032
0.00330215
0.00330329
0.0033205
0.00332147
0.00330242
0.00331854
0.00331856
0.00331861
0.00328257
0.00328252
0.00328255
0.00328259
0.00330319
0.00332054
0.00331724
0.00330522
0.0033203
0.00330303
0.00330523
0.00332018
0.00330224
0.00330321
0.00331723
0.0033205
0.0033052
0.0033203