/*--------------------------------*- C++ -*----------------------------------*\
| =========                 |                                                 |
| \\      /  F ield         | OpenFOAM: The Open Source CFD Toolbox           |
|  \\    /   O peration     | Version:  v2012                                 |
|   \\  /    A nd           | Website:  www.openfoam.com                      |
|    \\/     M anipulation  |                                                 |
\*---------------------------------------------------------------------------*/
FoamFile
{
    version     2.0;
    format      ascii;
    class       volScalarField;
    location    "0.25";
    object      p;
}
// * * * * * * * * * * * * * * * * * * * * * * * * * * * * * * * * * * * * * //

dimensions      [0 2 -2 0 0 0 0];


internalField   nonuniform List<scalar> 
247104
(
1.8773e-06
1.87735e-06
1.87746e-06
1.87739e-06
1.87726e-06
1.87742e-06
1.87746e-06
1.87728e-06
1.87735e-06
1.8774e-06
1.87746e-06
1.87728e-06
1.87717e-06
1.87731e-06
1.87747e-06
1.87738e-06
1.87747e-06
1.87746e-06
1.87715e-06
1.87677e-06
1.87662e-06
1.87681e-06
1.8772e-06
1.87748e-06
1.87747e-06
1.87739e-06
1.87728e-06
1.87677e-06
1.87628e-06
1.8761e-06
1.87633e-06
1.87684e-06
1.87733e-06
1.87738e-06
1.87729e-06
1.87725e-06
1.87717e-06
1.87662e-06
1.8761e-06
1.87592e-06
1.87615e-06
1.8767e-06
1.87722e-06
1.87723e-06
1.87741e-06
1.8773e-06
1.87681e-06
1.87633e-06
1.87615e-06
1.87637e-06
1.87688e-06
1.87735e-06
1.87741e-06
1.87745e-06
1.87746e-06
1.87719e-06
1.87684e-06
1.8767e-06
1.87688e-06
1.87724e-06
1.87748e-06
1.87745e-06
1.87727e-06
1.87737e-06
1.87747e-06
1.87732e-06
1.87722e-06
1.87735e-06
1.87748e-06
1.87734e-06
1.87746e-06
1.87737e-06
1.87722e-06
1.87741e-06
1.87745e-06
1.84368e-06
1.84165e-06
1.84131e-06
1.84014e-06
1.8401e-06
1.84002e-06
1.84004e-06
1.84135e-06
1.8417e-06
1.8413e-06
1.83925e-06
1.83643e-06
1.83637e-06
1.83637e-06
1.83643e-06
1.83966e-06
1.83987e-06
1.84014e-06
1.83643e-06
1.83637e-06
1.83642e-06
1.83642e-06
1.83637e-06
1.83644e-06
1.84006e-06
1.84108e-06
1.84369e-06
1.8401e-06
1.83637e-06
1.83642e-06
1.83652e-06
1.83652e-06
1.83642e-06
1.83637e-06
1.83998e-06
1.84162e-06
1.84165e-06
1.84002e-06
1.83637e-06
1.83642e-06
1.83652e-06
1.83652e-06
1.83642e-06
1.83637e-06
1.84015e-06
1.84004e-06
1.84003e-06
1.83643e-06
1.83637e-06
1.83642e-06
1.83642e-06
1.83637e-06
1.83643e-06
1.83994e-06
1.84093e-06
1.84134e-06
1.83965e-06
1.83643e-06
1.83637e-06
1.83637e-06
1.83643e-06
1.83981e-06
1.84005e-06
1.84146e-06
1.8417e-06
1.83986e-06
1.84005e-06
1.83998e-06
1.84015e-06
1.83994e-06
1.84005e-06
1.84208e-06
1.84108e-06
1.84161e-06
1.84004e-06
1.84093e-06
1.84146e-06
1.82359e-06
1.8234e-06
1.82324e-06
1.82108e-06
1.821e-06
1.82098e-06
1.82106e-06
1.82325e-06
1.82347e-06
1.82323e-06
1.82035e-06
1.81732e-06
1.81722e-06
1.81722e-06
1.81731e-06
1.82097e-06
1.82152e-06
1.82106e-06
1.81738e-06
1.817e-06
1.81701e-06
1.81701e-06
1.81699e-06
1.81736e-06
1.82179e-06
1.82377e-06
1.82358e-06
1.82099e-06
1.81724e-06
1.81702e-06
1.81704e-06
1.81703e-06
1.81701e-06
1.81723e-06
1.82183e-06
1.82348e-06
1.82339e-06
1.82097e-06
1.81724e-06
1.81702e-06
1.81704e-06
1.81703e-06
1.81701e-06
1.81723e-06
1.82176e-06
1.82159e-06
1.82105e-06
1.81736e-06
1.817e-06
1.81701e-06
1.81701e-06
1.81699e-06
1.81736e-06
1.82184e-06
1.82383e-06
1.82325e-06
1.82098e-06
1.81737e-06
1.81723e-06
1.81722e-06
1.81731e-06
1.82145e-06
1.82169e-06
1.82373e-06
1.82346e-06
1.82152e-06
1.82179e-06
1.82183e-06
1.82176e-06
1.82184e-06
1.82169e-06
1.82367e-06
1.82377e-06
1.82348e-06
1.82159e-06
1.82383e-06
1.82373e-06
1.80436e-06
1.80418e-06
1.80405e-06
1.80181e-06
1.80174e-06
1.80164e-06
1.80184e-06
1.80405e-06
1.80428e-06
1.80403e-06
1.80098e-06
1.79805e-06
1.798e-06
1.798e-06
1.79805e-06
1.80165e-06
1.80238e-06
1.80179e-06
1.79805e-06
1.7979e-06
1.7979e-06
1.7979e-06
1.7979e-06
1.79805e-06
1.80257e-06
1.80453e-06
1.80433e-06
1.80172e-06
1.798e-06
1.79789e-06
1.7979e-06
1.7979e-06
1.79789e-06
1.798e-06
1.80266e-06
1.80422e-06
1.80415e-06
1.80162e-06
1.798e-06
1.79789e-06
1.7979e-06
1.7979e-06
1.79789e-06
1.798e-06
1.80262e-06
1.80243e-06
1.80182e-06
1.79805e-06
1.7979e-06
1.79789e-06
1.79789e-06
1.7979e-06
1.79805e-06
1.80264e-06
1.80457e-06
1.80402e-06
1.80164e-06
1.79805e-06
1.798e-06
1.798e-06
1.79805e-06
1.80241e-06
1.80253e-06
1.80453e-06
1.80426e-06
1.80237e-06
1.80258e-06
1.80266e-06
1.80263e-06
1.80265e-06
1.80254e-06
1.80453e-06
1.80454e-06
1.80423e-06
1.80245e-06
1.80458e-06
1.80455e-06
1.78506e-06
1.78489e-06
1.78472e-06
1.78247e-06
1.78239e-06
1.78226e-06
1.78249e-06
1.78472e-06
1.78496e-06
1.78471e-06
1.78165e-06
1.77871e-06
1.77869e-06
1.77869e-06
1.77871e-06
1.78227e-06
1.78308e-06
1.78247e-06
1.77871e-06
1.77866e-06
1.77866e-06
1.77866e-06
1.77866e-06
1.77871e-06
1.7833e-06
1.78525e-06
1.78506e-06
1.78239e-06
1.77869e-06
1.77866e-06
1.77866e-06
1.77866e-06
1.77866e-06
1.77869e-06
1.78343e-06
1.78498e-06
1.78488e-06
1.78226e-06
1.77869e-06
1.77866e-06
1.77866e-06
1.77866e-06
1.77866e-06
1.77869e-06
1.78341e-06
1.7832e-06
1.78249e-06
1.77871e-06
1.77866e-06
1.77866e-06
1.77866e-06
1.77866e-06
1.77871e-06
1.78338e-06
1.78532e-06
1.78472e-06
1.78227e-06
1.77871e-06
1.77869e-06
1.77869e-06
1.77871e-06
1.7832e-06
1.78326e-06
1.78524e-06
1.78496e-06
1.78308e-06
1.7833e-06
1.78343e-06
1.78341e-06
1.78338e-06
1.78327e-06
1.7852e-06
1.78525e-06
1.78499e-06
1.7832e-06
1.78532e-06
1.78524e-06
1.76576e-06
1.76559e-06
1.7654e-06
1.76316e-06
1.76307e-06
1.76294e-06
1.76317e-06
1.76541e-06
1.76564e-06
1.7654e-06
1.76233e-06
1.75938e-06
1.75938e-06
1.75938e-06
1.75938e-06
1.76292e-06
1.76376e-06
1.76315e-06
1.75939e-06
1.75937e-06
1.75937e-06
1.75937e-06
1.75937e-06
1.75938e-06
1.76399e-06
1.76594e-06
1.76576e-06
1.76307e-06
1.75938e-06
1.75937e-06
1.75937e-06
1.75937e-06
1.75937e-06
1.75938e-06
1.76413e-06
1.76569e-06
1.76559e-06
1.76294e-06
1.75938e-06
1.75937e-06
1.75937e-06
1.75937e-06
1.75937e-06
1.75938e-06
1.76412e-06
1.7639e-06
1.76317e-06
1.75938e-06
1.75937e-06
1.75937e-06
1.75937e-06
1.75937e-06
1.75938e-06
1.76407e-06
1.76603e-06
1.76541e-06
1.76292e-06
1.75938e-06
1.75938e-06
1.75938e-06
1.75938e-06
1.76392e-06
1.76396e-06
1.76593e-06
1.76564e-06
1.76377e-06
1.76399e-06
1.76413e-06
1.76412e-06
1.76408e-06
1.76397e-06
1.76586e-06
1.76594e-06
1.7657e-06
1.76391e-06
1.76603e-06
1.76593e-06
1.74645e-06
1.74628e-06
1.74609e-06
1.74384e-06
1.74376e-06
1.74363e-06
1.74385e-06
1.74609e-06
1.74632e-06
1.74609e-06
1.74302e-06
1.74007e-06
1.74007e-06
1.74007e-06
1.74007e-06
1.74361e-06
1.74446e-06
1.74384e-06
1.74007e-06
1.74007e-06
1.74007e-06
1.74007e-06
1.74007e-06
1.74007e-06
1.74468e-06
1.74663e-06
1.74645e-06
1.74376e-06
1.74007e-06
1.74007e-06
1.74007e-06
1.74007e-06
1.74007e-06
1.74007e-06
1.74482e-06
1.74639e-06
1.74628e-06
1.74363e-06
1.74007e-06
1.74007e-06
1.74007e-06
1.74007e-06
1.74007e-06
1.74007e-06
1.74482e-06
1.7446e-06
1.74385e-06
1.74007e-06
1.74007e-06
1.74007e-06
1.74007e-06
1.74007e-06
1.74007e-06
1.74476e-06
1.74672e-06
1.7461e-06
1.74361e-06
1.74007e-06
1.74007e-06
1.74007e-06
1.74007e-06
1.74462e-06
1.74466e-06
1.74662e-06
1.74633e-06
1.74446e-06
1.74468e-06
1.74482e-06
1.74482e-06
1.74476e-06
1.74467e-06
1.74656e-06
1.74663e-06
1.74639e-06
1.7446e-06
1.74672e-06
1.74662e-06
1.72714e-06
1.72697e-06
1.72678e-06
1.72453e-06
1.72445e-06
1.72432e-06
1.72454e-06
1.72678e-06
1.72701e-06
1.72678e-06
1.72371e-06
1.72076e-06
1.72076e-06
1.72076e-06
1.72076e-06
1.7243e-06
1.72515e-06
1.72453e-06
1.72076e-06
1.72076e-06
1.72076e-06
1.72076e-06
1.72076e-06
1.72076e-06
1.72536e-06
1.72732e-06
1.72714e-06
1.72445e-06
1.72076e-06
1.72076e-06
1.72076e-06
1.72076e-06
1.72076e-06
1.72076e-06
1.72551e-06
1.72708e-06
1.72697e-06
1.72431e-06
1.72076e-06
1.72076e-06
1.72076e-06
1.72076e-06
1.72076e-06
1.72076e-06
1.72551e-06
1.72529e-06
1.72454e-06
1.72076e-06
1.72076e-06
1.72076e-06
1.72076e-06
1.72076e-06
1.72076e-06
1.72545e-06
1.72741e-06
1.72678e-06
1.72429e-06
1.72076e-06
1.72076e-06
1.72076e-06
1.72076e-06
1.72531e-06
1.72535e-06
1.72731e-06
1.72701e-06
1.72515e-06
1.72536e-06
1.72551e-06
1.72551e-06
1.72545e-06
1.72536e-06
1.72725e-06
1.72732e-06
1.72708e-06
1.72529e-06
1.72741e-06
1.72731e-06
1.70783e-06
1.70766e-06
1.70747e-06
1.70522e-06
1.70514e-06
1.705e-06
1.70523e-06
1.70747e-06
1.7077e-06
1.70747e-06
1.7044e-06
1.70145e-06
1.70145e-06
1.70145e-06
1.70145e-06
1.70498e-06
1.70584e-06
1.70522e-06
1.70145e-06
1.70145e-06
1.70145e-06
1.70145e-06
1.70145e-06
1.70145e-06
1.70606e-06
1.70801e-06
1.70783e-06
1.70514e-06
1.70145e-06
1.70145e-06
1.70145e-06
1.70145e-06
1.70145e-06
1.70145e-06
1.70621e-06
1.70777e-06
1.70766e-06
1.705e-06
1.70145e-06
1.70145e-06
1.70145e-06
1.70145e-06
1.70145e-06
1.70145e-06
1.7062e-06
1.70598e-06
1.70523e-06
1.70145e-06
1.70145e-06
1.70145e-06
1.70145e-06
1.70145e-06
1.70145e-06
1.70615e-06
1.7081e-06
1.70748e-06
1.70498e-06
1.70145e-06
1.70145e-06
1.70145e-06
1.70145e-06
1.706e-06
1.70604e-06
1.708e-06
1.7077e-06
1.70583e-06
1.70605e-06
1.7062e-06
1.7062e-06
1.70614e-06
1.70605e-06
1.70794e-06
1.70801e-06
1.70777e-06
1.70598e-06
1.7081e-06
1.708e-06
1.68851e-06
1.68835e-06
1.68816e-06
1.68591e-06
1.68583e-06
1.6857e-06
1.68592e-06
1.68816e-06
1.68839e-06
1.68816e-06
1.68509e-06
1.68214e-06
1.68214e-06
1.68214e-06
1.68214e-06
1.68567e-06
1.68653e-06
1.68591e-06
1.68214e-06
1.68214e-06
1.68214e-06
1.68214e-06
1.68214e-06
1.68214e-06
1.68675e-06
1.6887e-06
1.68852e-06
1.68583e-06
1.68214e-06
1.68214e-06
1.68214e-06
1.68214e-06
1.68214e-06
1.68214e-06
1.6869e-06
1.68846e-06
1.68835e-06
1.68569e-06
1.68214e-06
1.68214e-06
1.68214e-06
1.68214e-06
1.68214e-06
1.68214e-06
1.68689e-06
1.68667e-06
1.68592e-06
1.68214e-06
1.68214e-06
1.68214e-06
1.68214e-06
1.68214e-06
1.68214e-06
1.68684e-06
1.68879e-06
1.68817e-06
1.68567e-06
1.68214e-06
1.68214e-06
1.68214e-06
1.68214e-06
1.68669e-06
1.68673e-06
1.68869e-06
1.6884e-06
1.68653e-06
1.68674e-06
1.68689e-06
1.68689e-06
1.68684e-06
1.68674e-06
1.68863e-06
1.6887e-06
1.68846e-06
1.68667e-06
1.68879e-06
1.68869e-06
1.66921e-06
1.66904e-06
1.66885e-06
1.6666e-06
1.66652e-06
1.66639e-06
1.66662e-06
1.66886e-06
1.66908e-06
1.66885e-06
1.66578e-06
1.66283e-06
1.66283e-06
1.66283e-06
1.66283e-06
1.66637e-06
1.66722e-06
1.6666e-06
1.66283e-06
1.66283e-06
1.66283e-06
1.66283e-06
1.66283e-06
1.66283e-06
1.66744e-06
1.66939e-06
1.66921e-06
1.66652e-06
1.66283e-06
1.66283e-06
1.66283e-06
1.66283e-06
1.66283e-06
1.66283e-06
1.66759e-06
1.66915e-06
1.66904e-06
1.66639e-06
1.66283e-06
1.66283e-06
1.66283e-06
1.66283e-06
1.66283e-06
1.66283e-06
1.66758e-06
1.66736e-06
1.66661e-06
1.66283e-06
1.66283e-06
1.66283e-06
1.66283e-06
1.66283e-06
1.66283e-06
1.66753e-06
1.66948e-06
1.66886e-06
1.66637e-06
1.66283e-06
1.66283e-06
1.66283e-06
1.66283e-06
1.66738e-06
1.66742e-06
1.66938e-06
1.66909e-06
1.66722e-06
1.66743e-06
1.66759e-06
1.66758e-06
1.66753e-06
1.66743e-06
1.66932e-06
1.66939e-06
1.66915e-06
1.66736e-06
1.66948e-06
1.66938e-06
1.6499e-06
1.64973e-06
1.64954e-06
1.64729e-06
1.64721e-06
1.64708e-06
1.64731e-06
1.64955e-06
1.64977e-06
1.64954e-06
1.64647e-06
1.64352e-06
1.64352e-06
1.64352e-06
1.64352e-06
1.64706e-06
1.64791e-06
1.64729e-06
1.64352e-06
1.64352e-06
1.64352e-06
1.64352e-06
1.64352e-06
1.64352e-06
1.64813e-06
1.65008e-06
1.6499e-06
1.64721e-06
1.64352e-06
1.64352e-06
1.64352e-06
1.64352e-06
1.64352e-06
1.64352e-06
1.64828e-06
1.64984e-06
1.64973e-06
1.64708e-06
1.64352e-06
1.64352e-06
1.64352e-06
1.64352e-06
1.64352e-06
1.64352e-06
1.64827e-06
1.64805e-06
1.64731e-06
1.64352e-06
1.64352e-06
1.64352e-06
1.64352e-06
1.64352e-06
1.64352e-06
1.64822e-06
1.65018e-06
1.64955e-06
1.64706e-06
1.64352e-06
1.64352e-06
1.64352e-06
1.64352e-06
1.64807e-06
1.64811e-06
1.65007e-06
1.64978e-06
1.64791e-06
1.64813e-06
1.64828e-06
1.64827e-06
1.64822e-06
1.64812e-06
1.65001e-06
1.65008e-06
1.64985e-06
1.64806e-06
1.65018e-06
1.65007e-06
1.63059e-06
1.63042e-06
1.63023e-06
1.62798e-06
1.6279e-06
1.62777e-06
1.628e-06
1.63024e-06
1.63046e-06
1.63023e-06
1.62716e-06
1.62421e-06
1.62421e-06
1.62421e-06
1.62421e-06
1.62775e-06
1.6286e-06
1.62798e-06
1.62421e-06
1.62421e-06
1.62421e-06
1.62421e-06
1.62421e-06
1.62421e-06
1.62882e-06
1.63077e-06
1.63059e-06
1.6279e-06
1.62421e-06
1.62421e-06
1.62421e-06
1.62421e-06
1.62421e-06
1.62421e-06
1.62897e-06
1.63053e-06
1.63042e-06
1.62777e-06
1.62421e-06
1.62421e-06
1.62421e-06
1.62421e-06
1.62421e-06
1.62421e-06
1.62896e-06
1.62874e-06
1.628e-06
1.62421e-06
1.62421e-06
1.62421e-06
1.62421e-06
1.62421e-06
1.62421e-06
1.62891e-06
1.63087e-06
1.63024e-06
1.62775e-06
1.62421e-06
1.62421e-06
1.62421e-06
1.62421e-06
1.62876e-06
1.6288e-06
1.63076e-06
1.63047e-06
1.6286e-06
1.62882e-06
1.62897e-06
1.62896e-06
1.62891e-06
1.62881e-06
1.6307e-06
1.63077e-06
1.63054e-06
1.62875e-06
1.63087e-06
1.63076e-06
1.61128e-06
1.61111e-06
1.61092e-06
1.60867e-06
1.60859e-06
1.60846e-06
1.60869e-06
1.61093e-06
1.61115e-06
1.61092e-06
1.60785e-06
1.6049e-06
1.6049e-06
1.6049e-06
1.6049e-06
1.60844e-06
1.60929e-06
1.60867e-06
1.6049e-06
1.6049e-06
1.6049e-06
1.6049e-06
1.6049e-06
1.6049e-06
1.60951e-06
1.61146e-06
1.61128e-06
1.60859e-06
1.6049e-06
1.6049e-06
1.6049e-06
1.6049e-06
1.6049e-06
1.6049e-06
1.60966e-06
1.61122e-06
1.61111e-06
1.60846e-06
1.6049e-06
1.6049e-06
1.6049e-06
1.6049e-06
1.6049e-06
1.6049e-06
1.60965e-06
1.60943e-06
1.60869e-06
1.6049e-06
1.6049e-06
1.6049e-06
1.6049e-06
1.6049e-06
1.6049e-06
1.6096e-06
1.61156e-06
1.61093e-06
1.60844e-06
1.6049e-06
1.6049e-06
1.6049e-06
1.6049e-06
1.60945e-06
1.60949e-06
1.61145e-06
1.61116e-06
1.60929e-06
1.60951e-06
1.60966e-06
1.60965e-06
1.6096e-06
1.6095e-06
1.61139e-06
1.61146e-06
1.61122e-06
1.60943e-06
1.61156e-06
1.61145e-06
1.59197e-06
1.5918e-06
1.5916e-06
1.58936e-06
1.58928e-06
1.58915e-06
1.58938e-06
1.59162e-06
1.59184e-06
1.59161e-06
1.58854e-06
1.58559e-06
1.58559e-06
1.58559e-06
1.58559e-06
1.58913e-06
1.58998e-06
1.58936e-06
1.58559e-06
1.58559e-06
1.58559e-06
1.58559e-06
1.58559e-06
1.58559e-06
1.5902e-06
1.59215e-06
1.59197e-06
1.58928e-06
1.58559e-06
1.58559e-06
1.58559e-06
1.58559e-06
1.58559e-06
1.58559e-06
1.59035e-06
1.59191e-06
1.5918e-06
1.58915e-06
1.58559e-06
1.58559e-06
1.58559e-06
1.58559e-06
1.58559e-06
1.58559e-06
1.59034e-06
1.59012e-06
1.58938e-06
1.58559e-06
1.58559e-06
1.58559e-06
1.58559e-06
1.58559e-06
1.58559e-06
1.59029e-06
1.59225e-06
1.59162e-06
1.58913e-06
1.58559e-06
1.58559e-06
1.58559e-06
1.58559e-06
1.59014e-06
1.59018e-06
1.59214e-06
1.59185e-06
1.58998e-06
1.5902e-06
1.59035e-06
1.59034e-06
1.59029e-06
1.59019e-06
1.59208e-06
1.59215e-06
1.59191e-06
1.59012e-06
1.59225e-06
1.59214e-06
1.57266e-06
1.57249e-06
1.5723e-06
1.57005e-06
1.56997e-06
1.56984e-06
1.57007e-06
1.57231e-06
1.57253e-06
1.5723e-06
1.56923e-06
1.56628e-06
1.56628e-06
1.56628e-06
1.56628e-06
1.56982e-06
1.57067e-06
1.57005e-06
1.56628e-06
1.56628e-06
1.56628e-06
1.56628e-06
1.56628e-06
1.56628e-06
1.57089e-06
1.57284e-06
1.57266e-06
1.56997e-06
1.56628e-06
1.56628e-06
1.56628e-06
1.56628e-06
1.56628e-06
1.56628e-06
1.57104e-06
1.5726e-06
1.57249e-06
1.56984e-06
1.56628e-06
1.56628e-06
1.56628e-06
1.56628e-06
1.56628e-06
1.56628e-06
1.57103e-06
1.57081e-06
1.57007e-06
1.56628e-06
1.56628e-06
1.56628e-06
1.56628e-06
1.56628e-06
1.56628e-06
1.57098e-06
1.57294e-06
1.57231e-06
1.56982e-06
1.56628e-06
1.56628e-06
1.56628e-06
1.56628e-06
1.57083e-06
1.57087e-06
1.57283e-06
1.57254e-06
1.57067e-06
1.57089e-06
1.57104e-06
1.57103e-06
1.57098e-06
1.57088e-06
1.57277e-06
1.57284e-06
1.5726e-06
1.57081e-06
1.57294e-06
1.57283e-06
1.55335e-06
1.55318e-06
1.55299e-06
1.55075e-06
1.55066e-06
1.55053e-06
1.55076e-06
1.553e-06
1.55322e-06
1.55299e-06
1.54992e-06
1.54697e-06
1.54697e-06
1.54697e-06
1.54697e-06
1.55051e-06
1.55136e-06
1.55074e-06
1.54697e-06
1.54697e-06
1.54697e-06
1.54697e-06
1.54697e-06
1.54697e-06
1.55158e-06
1.55353e-06
1.55335e-06
1.55066e-06
1.54697e-06
1.54697e-06
1.54697e-06
1.54697e-06
1.54697e-06
1.54697e-06
1.55173e-06
1.55329e-06
1.55318e-06
1.55053e-06
1.54697e-06
1.54697e-06
1.54697e-06
1.54697e-06
1.54697e-06
1.54697e-06
1.55172e-06
1.5515e-06
1.55076e-06
1.54697e-06
1.54697e-06
1.54697e-06
1.54697e-06
1.54697e-06
1.54697e-06
1.55167e-06
1.55363e-06
1.553e-06
1.55051e-06
1.54697e-06
1.54697e-06
1.54697e-06
1.54697e-06
1.55152e-06
1.55156e-06
1.55352e-06
1.55323e-06
1.55136e-06
1.55158e-06
1.55173e-06
1.55172e-06
1.55167e-06
1.55157e-06
1.55346e-06
1.55353e-06
1.5533e-06
1.55151e-06
1.55363e-06
1.55352e-06
1.53404e-06
1.53387e-06
1.53368e-06
1.53144e-06
1.53135e-06
1.53122e-06
1.53145e-06
1.53369e-06
1.53391e-06
1.53368e-06
1.53061e-06
1.52766e-06
1.52766e-06
1.52766e-06
1.52766e-06
1.5312e-06
1.53205e-06
1.53143e-06
1.52766e-06
1.52766e-06
1.52766e-06
1.52766e-06
1.52766e-06
1.52766e-06
1.53227e-06
1.53422e-06
1.53404e-06
1.53135e-06
1.52766e-06
1.52766e-06
1.52766e-06
1.52766e-06
1.52766e-06
1.52766e-06
1.53242e-06
1.53398e-06
1.53387e-06
1.53122e-06
1.52766e-06
1.52766e-06
1.52766e-06
1.52766e-06
1.52766e-06
1.52766e-06
1.53241e-06
1.53219e-06
1.53145e-06
1.52766e-06
1.52766e-06
1.52766e-06
1.52766e-06
1.52766e-06
1.52766e-06
1.53236e-06
1.53432e-06
1.53369e-06
1.5312e-06
1.52766e-06
1.52766e-06
1.52766e-06
1.52766e-06
1.53221e-06
1.53226e-06
1.53421e-06
1.53392e-06
1.53205e-06
1.53227e-06
1.53242e-06
1.53241e-06
1.53236e-06
1.53226e-06
1.53415e-06
1.53422e-06
1.53399e-06
1.5322e-06
1.53432e-06
1.53421e-06
1.51473e-06
1.51456e-06
1.51437e-06
1.51213e-06
1.51204e-06
1.51191e-06
1.51214e-06
1.51438e-06
1.5146e-06
1.51437e-06
1.5113e-06
1.50835e-06
1.50835e-06
1.50835e-06
1.50835e-06
1.51189e-06
1.51274e-06
1.51212e-06
1.50835e-06
1.50835e-06
1.50835e-06
1.50835e-06
1.50835e-06
1.50835e-06
1.51296e-06
1.51491e-06
1.51473e-06
1.51204e-06
1.50835e-06
1.50835e-06
1.50835e-06
1.50835e-06
1.50835e-06
1.50835e-06
1.51311e-06
1.51467e-06
1.51456e-06
1.51191e-06
1.50835e-06
1.50835e-06
1.50835e-06
1.50835e-06
1.50835e-06
1.50835e-06
1.5131e-06
1.51288e-06
1.51214e-06
1.50835e-06
1.50835e-06
1.50835e-06
1.50835e-06
1.50835e-06
1.50835e-06
1.51305e-06
1.51501e-06
1.51438e-06
1.51189e-06
1.50835e-06
1.50835e-06
1.50835e-06
1.50835e-06
1.5129e-06
1.51295e-06
1.5149e-06
1.51461e-06
1.51274e-06
1.51296e-06
1.51311e-06
1.5131e-06
1.51305e-06
1.51295e-06
1.51484e-06
1.51491e-06
1.51468e-06
1.51289e-06
1.51501e-06
1.5149e-06
1.49542e-06
1.49525e-06
1.49506e-06
1.49282e-06
1.49273e-06
1.4926e-06
1.49283e-06
1.49507e-06
1.49529e-06
1.49506e-06
1.49199e-06
1.48904e-06
1.48904e-06
1.48904e-06
1.48904e-06
1.49258e-06
1.49343e-06
1.49281e-06
1.48904e-06
1.48904e-06
1.48904e-06
1.48904e-06
1.48904e-06
1.48904e-06
1.49365e-06
1.4956e-06
1.49542e-06
1.49273e-06
1.48904e-06
1.48904e-06
1.48904e-06
1.48904e-06
1.48904e-06
1.48904e-06
1.4938e-06
1.49536e-06
1.49525e-06
1.4926e-06
1.48904e-06
1.48904e-06
1.48904e-06
1.48904e-06
1.48904e-06
1.48904e-06
1.49379e-06
1.49358e-06
1.49283e-06
1.48904e-06
1.48904e-06
1.48904e-06
1.48904e-06
1.48904e-06
1.48904e-06
1.49374e-06
1.4957e-06
1.49507e-06
1.49258e-06
1.48904e-06
1.48904e-06
1.48904e-06
1.48904e-06
1.4936e-06
1.49364e-06
1.49559e-06
1.4953e-06
1.49343e-06
1.49365e-06
1.4938e-06
1.49379e-06
1.49374e-06
1.49364e-06
1.49553e-06
1.4956e-06
1.49537e-06
1.49358e-06
1.4957e-06
1.49559e-06
1.47611e-06
1.47594e-06
1.47575e-06
1.47351e-06
1.47342e-06
1.47329e-06
1.47352e-06
1.47576e-06
1.47598e-06
1.47575e-06
1.47268e-06
1.46974e-06
1.46974e-06
1.46974e-06
1.46974e-06
1.47327e-06
1.47412e-06
1.47351e-06
1.46974e-06
1.46974e-06
1.46974e-06
1.46974e-06
1.46974e-06
1.46974e-06
1.47434e-06
1.47629e-06
1.47612e-06
1.47342e-06
1.46974e-06
1.46974e-06
1.46974e-06
1.46974e-06
1.46974e-06
1.46974e-06
1.47449e-06
1.47606e-06
1.47594e-06
1.47329e-06
1.46974e-06
1.46974e-06
1.46974e-06
1.46974e-06
1.46974e-06
1.46974e-06
1.47448e-06
1.47427e-06
1.47352e-06
1.46974e-06
1.46974e-06
1.46974e-06
1.46974e-06
1.46974e-06
1.46974e-06
1.47443e-06
1.47639e-06
1.47576e-06
1.47327e-06
1.46974e-06
1.46974e-06
1.46974e-06
1.46974e-06
1.47429e-06
1.47433e-06
1.47628e-06
1.47599e-06
1.47412e-06
1.47434e-06
1.47449e-06
1.47448e-06
1.47443e-06
1.47433e-06
1.47623e-06
1.47629e-06
1.47606e-06
1.47427e-06
1.47639e-06
1.47628e-06
1.4568e-06
1.45663e-06
1.45644e-06
1.4542e-06
1.45411e-06
1.45398e-06
1.45421e-06
1.45645e-06
1.45667e-06
1.45644e-06
1.45337e-06
1.45043e-06
1.45043e-06
1.45043e-06
1.45043e-06
1.45396e-06
1.45481e-06
1.4542e-06
1.45043e-06
1.45043e-06
1.45043e-06
1.45043e-06
1.45043e-06
1.45043e-06
1.45503e-06
1.45698e-06
1.45681e-06
1.45411e-06
1.45043e-06
1.45043e-06
1.45043e-06
1.45043e-06
1.45043e-06
1.45043e-06
1.45518e-06
1.45675e-06
1.45664e-06
1.45398e-06
1.45043e-06
1.45043e-06
1.45043e-06
1.45043e-06
1.45043e-06
1.45043e-06
1.45517e-06
1.45496e-06
1.45421e-06
1.45043e-06
1.45043e-06
1.45043e-06
1.45043e-06
1.45043e-06
1.45043e-06
1.45512e-06
1.45708e-06
1.45645e-06
1.45396e-06
1.45043e-06
1.45043e-06
1.45043e-06
1.45043e-06
1.45498e-06
1.45502e-06
1.45697e-06
1.45668e-06
1.45481e-06
1.45503e-06
1.45518e-06
1.45517e-06
1.45512e-06
1.45502e-06
1.45692e-06
1.45699e-06
1.45675e-06
1.45496e-06
1.45708e-06
1.45698e-06
1.43749e-06
1.43733e-06
1.43713e-06
1.43489e-06
1.4348e-06
1.43467e-06
1.4349e-06
1.43714e-06
1.43736e-06
1.43713e-06
1.43406e-06
1.43112e-06
1.43112e-06
1.43112e-06
1.43112e-06
1.43465e-06
1.4355e-06
1.43489e-06
1.43112e-06
1.43112e-06
1.43112e-06
1.43112e-06
1.43112e-06
1.43112e-06
1.43572e-06
1.43767e-06
1.4375e-06
1.4348e-06
1.43112e-06
1.43112e-06
1.43112e-06
1.43112e-06
1.43112e-06
1.43112e-06
1.43587e-06
1.43744e-06
1.43733e-06
1.43467e-06
1.43112e-06
1.43112e-06
1.43112e-06
1.43112e-06
1.43112e-06
1.43112e-06
1.43586e-06
1.43565e-06
1.4349e-06
1.43112e-06
1.43112e-06
1.43112e-06
1.43112e-06
1.43112e-06
1.43112e-06
1.43581e-06
1.43777e-06
1.43714e-06
1.43465e-06
1.43112e-06
1.43112e-06
1.43112e-06
1.43112e-06
1.43567e-06
1.43571e-06
1.43766e-06
1.43737e-06
1.4355e-06
1.43572e-06
1.43587e-06
1.43586e-06
1.43581e-06
1.43571e-06
1.43761e-06
1.43768e-06
1.43744e-06
1.43565e-06
1.43777e-06
1.43767e-06
1.41818e-06
1.41802e-06
1.41782e-06
1.41558e-06
1.41549e-06
1.41536e-06
1.41559e-06
1.41783e-06
1.41805e-06
1.41782e-06
1.41475e-06
1.41181e-06
1.41181e-06
1.41181e-06
1.41181e-06
1.41534e-06
1.41619e-06
1.41558e-06
1.41181e-06
1.41181e-06
1.41181e-06
1.41181e-06
1.41181e-06
1.41181e-06
1.41641e-06
1.41836e-06
1.41819e-06
1.41549e-06
1.41181e-06
1.41181e-06
1.41181e-06
1.41181e-06
1.41181e-06
1.41181e-06
1.41656e-06
1.41813e-06
1.41802e-06
1.41536e-06
1.41181e-06
1.41181e-06
1.41181e-06
1.41181e-06
1.41181e-06
1.41181e-06
1.41655e-06
1.41634e-06
1.41559e-06
1.41181e-06
1.41181e-06
1.41181e-06
1.41181e-06
1.41181e-06
1.41181e-06
1.4165e-06
1.41846e-06
1.41783e-06
1.41534e-06
1.41181e-06
1.41181e-06
1.41181e-06
1.41181e-06
1.41636e-06
1.4164e-06
1.41835e-06
1.41806e-06
1.41619e-06
1.41641e-06
1.41656e-06
1.41655e-06
1.4165e-06
1.4164e-06
1.4183e-06
1.41837e-06
1.41813e-06
1.41634e-06
1.41846e-06
1.41836e-06
1.39887e-06
1.39871e-06
1.39851e-06
1.39627e-06
1.39618e-06
1.39605e-06
1.39628e-06
1.39852e-06
1.39874e-06
1.39851e-06
1.39544e-06
1.3925e-06
1.3925e-06
1.3925e-06
1.3925e-06
1.39603e-06
1.39688e-06
1.39627e-06
1.3925e-06
1.3925e-06
1.3925e-06
1.3925e-06
1.3925e-06
1.3925e-06
1.3971e-06
1.39905e-06
1.39888e-06
1.39618e-06
1.3925e-06
1.3925e-06
1.3925e-06
1.3925e-06
1.3925e-06
1.3925e-06
1.39725e-06
1.39882e-06
1.3987e-06
1.39605e-06
1.3925e-06
1.3925e-06
1.3925e-06
1.3925e-06
1.3925e-06
1.3925e-06
1.39724e-06
1.39703e-06
1.39628e-06
1.3925e-06
1.3925e-06
1.3925e-06
1.3925e-06
1.3925e-06
1.3925e-06
1.39719e-06
1.39915e-06
1.39852e-06
1.39603e-06
1.3925e-06
1.3925e-06
1.3925e-06
1.3925e-06
1.39705e-06
1.39709e-06
1.39904e-06
1.39875e-06
1.39688e-06
1.3971e-06
1.39725e-06
1.39724e-06
1.39719e-06
1.39709e-06
1.39899e-06
1.39906e-06
1.39882e-06
1.39703e-06
1.39915e-06
1.39905e-06
1.37956e-06
1.3794e-06
1.3792e-06
1.37696e-06
1.37687e-06
1.37674e-06
1.37697e-06
1.37921e-06
1.37943e-06
1.3792e-06
1.37613e-06
1.37319e-06
1.37319e-06
1.37319e-06
1.37319e-06
1.37672e-06
1.37757e-06
1.37696e-06
1.37319e-06
1.37319e-06
1.37319e-06
1.37319e-06
1.37319e-06
1.37319e-06
1.37779e-06
1.37974e-06
1.37957e-06
1.37687e-06
1.37319e-06
1.37319e-06
1.37319e-06
1.37319e-06
1.37319e-06
1.37319e-06
1.37794e-06
1.37951e-06
1.3794e-06
1.37674e-06
1.37319e-06
1.37319e-06
1.37319e-06
1.37319e-06
1.37319e-06
1.37319e-06
1.37793e-06
1.37772e-06
1.37697e-06
1.37319e-06
1.37319e-06
1.37319e-06
1.37319e-06
1.37319e-06
1.37319e-06
1.37788e-06
1.37984e-06
1.37921e-06
1.37672e-06
1.37319e-06
1.37319e-06
1.37319e-06
1.37319e-06
1.37774e-06
1.37778e-06
1.37973e-06
1.37944e-06
1.37757e-06
1.37779e-06
1.37794e-06
1.37793e-06
1.37788e-06
1.37778e-06
1.37968e-06
1.37975e-06
1.37951e-06
1.37772e-06
1.37984e-06
1.37974e-06
1.36025e-06
1.36009e-06
1.35989e-06
1.35765e-06
1.35756e-06
1.35743e-06
1.35766e-06
1.3599e-06
1.36012e-06
1.35989e-06
1.35682e-06
1.35388e-06
1.35388e-06
1.35388e-06
1.35388e-06
1.35741e-06
1.35826e-06
1.35765e-06
1.35388e-06
1.35388e-06
1.35388e-06
1.35388e-06
1.35388e-06
1.35388e-06
1.35848e-06
1.36043e-06
1.36026e-06
1.35756e-06
1.35388e-06
1.35388e-06
1.35388e-06
1.35388e-06
1.35388e-06
1.35388e-06
1.35863e-06
1.3602e-06
1.36009e-06
1.35743e-06
1.35388e-06
1.35388e-06
1.35388e-06
1.35388e-06
1.35388e-06
1.35388e-06
1.35863e-06
1.35841e-06
1.35766e-06
1.35388e-06
1.35388e-06
1.35388e-06
1.35388e-06
1.35388e-06
1.35388e-06
1.35857e-06
1.36053e-06
1.3599e-06
1.35741e-06
1.35388e-06
1.35388e-06
1.35388e-06
1.35388e-06
1.35843e-06
1.35847e-06
1.36042e-06
1.36013e-06
1.35826e-06
1.35848e-06
1.35863e-06
1.35862e-06
1.35857e-06
1.35848e-06
1.36037e-06
1.36044e-06
1.3602e-06
1.35841e-06
1.36053e-06
1.36043e-06
1.34095e-06
1.34078e-06
1.34058e-06
1.33834e-06
1.33825e-06
1.33812e-06
1.33835e-06
1.34059e-06
1.34082e-06
1.34058e-06
1.33752e-06
1.33457e-06
1.33457e-06
1.33457e-06
1.33457e-06
1.3381e-06
1.33895e-06
1.33834e-06
1.33457e-06
1.33457e-06
1.33457e-06
1.33457e-06
1.33457e-06
1.33457e-06
1.33917e-06
1.34113e-06
1.34095e-06
1.33825e-06
1.33457e-06
1.33457e-06
1.33457e-06
1.33457e-06
1.33457e-06
1.33457e-06
1.33932e-06
1.34089e-06
1.34078e-06
1.33812e-06
1.33457e-06
1.33457e-06
1.33457e-06
1.33457e-06
1.33457e-06
1.33457e-06
1.33932e-06
1.3391e-06
1.33835e-06
1.33457e-06
1.33457e-06
1.33457e-06
1.33457e-06
1.33457e-06
1.33457e-06
1.33926e-06
1.34122e-06
1.34059e-06
1.3381e-06
1.33457e-06
1.33457e-06
1.33457e-06
1.33457e-06
1.33912e-06
1.33916e-06
1.34112e-06
1.34082e-06
1.33895e-06
1.33917e-06
1.33932e-06
1.33932e-06
1.33926e-06
1.33917e-06
1.34106e-06
1.34113e-06
1.34089e-06
1.3391e-06
1.34122e-06
1.34112e-06
1.32164e-06
1.32147e-06
1.32127e-06
1.31903e-06
1.31895e-06
1.31881e-06
1.31904e-06
1.32129e-06
1.32151e-06
1.32127e-06
1.31821e-06
1.31526e-06
1.31526e-06
1.31526e-06
1.31526e-06
1.31879e-06
1.31965e-06
1.31903e-06
1.31526e-06
1.31526e-06
1.31526e-06
1.31526e-06
1.31526e-06
1.31526e-06
1.31986e-06
1.32182e-06
1.32164e-06
1.31895e-06
1.31526e-06
1.31526e-06
1.31526e-06
1.31526e-06
1.31526e-06
1.31526e-06
1.32001e-06
1.32158e-06
1.32147e-06
1.31881e-06
1.31526e-06
1.31526e-06
1.31526e-06
1.31526e-06
1.31526e-06
1.31526e-06
1.32001e-06
1.31979e-06
1.31904e-06
1.31526e-06
1.31526e-06
1.31526e-06
1.31526e-06
1.31526e-06
1.31526e-06
1.31995e-06
1.32191e-06
1.32128e-06
1.31879e-06
1.31526e-06
1.31526e-06
1.31526e-06
1.31526e-06
1.31981e-06
1.31985e-06
1.32181e-06
1.32151e-06
1.31964e-06
1.31986e-06
1.32001e-06
1.32001e-06
1.31996e-06
1.31986e-06
1.32175e-06
1.32182e-06
1.32158e-06
1.31979e-06
1.32191e-06
1.32181e-06
1.30233e-06
1.30216e-06
1.30196e-06
1.29972e-06
1.29964e-06
1.2995e-06
1.29973e-06
1.30198e-06
1.3022e-06
1.30196e-06
1.2989e-06
1.29595e-06
1.29595e-06
1.29595e-06
1.29595e-06
1.29948e-06
1.30034e-06
1.29972e-06
1.29595e-06
1.29595e-06
1.29595e-06
1.29595e-06
1.29595e-06
1.29595e-06
1.30055e-06
1.30251e-06
1.30233e-06
1.29964e-06
1.29595e-06
1.29595e-06
1.29595e-06
1.29595e-06
1.29595e-06
1.29595e-06
1.3007e-06
1.30227e-06
1.30216e-06
1.2995e-06
1.29595e-06
1.29595e-06
1.29595e-06
1.29595e-06
1.29595e-06
1.29595e-06
1.3007e-06
1.30048e-06
1.29973e-06
1.29595e-06
1.29595e-06
1.29595e-06
1.29595e-06
1.29595e-06
1.29595e-06
1.30064e-06
1.3026e-06
1.30197e-06
1.29948e-06
1.29595e-06
1.29595e-06
1.29595e-06
1.29595e-06
1.3005e-06
1.30054e-06
1.3025e-06
1.3022e-06
1.30033e-06
1.30055e-06
1.3007e-06
1.3007e-06
1.30064e-06
1.30055e-06
1.30244e-06
1.30251e-06
1.30227e-06
1.30048e-06
1.3026e-06
1.3025e-06
1.28301e-06
1.28285e-06
1.28265e-06
1.28041e-06
1.28033e-06
1.28019e-06
1.28042e-06
1.28267e-06
1.28289e-06
1.28266e-06
1.27959e-06
1.27664e-06
1.27664e-06
1.27664e-06
1.27664e-06
1.28018e-06
1.28103e-06
1.28041e-06
1.27664e-06
1.27664e-06
1.27664e-06
1.27664e-06
1.27664e-06
1.27664e-06
1.28125e-06
1.2832e-06
1.28302e-06
1.28033e-06
1.27664e-06
1.27664e-06
1.27664e-06
1.27664e-06
1.27664e-06
1.27664e-06
1.28139e-06
1.28296e-06
1.28285e-06
1.28019e-06
1.27664e-06
1.27664e-06
1.27664e-06
1.27664e-06
1.27664e-06
1.27664e-06
1.28139e-06
1.28117e-06
1.28042e-06
1.27664e-06
1.27664e-06
1.27664e-06
1.27664e-06
1.27664e-06
1.27664e-06
1.28134e-06
1.28329e-06
1.28267e-06
1.28017e-06
1.27664e-06
1.27664e-06
1.27664e-06
1.27664e-06
1.28119e-06
1.28123e-06
1.28319e-06
1.28289e-06
1.28102e-06
1.28124e-06
1.28139e-06
1.28139e-06
1.28134e-06
1.28124e-06
1.28313e-06
1.2832e-06
1.28296e-06
1.28117e-06
1.28329e-06
1.28319e-06
1.26371e-06
1.26354e-06
1.26334e-06
1.2611e-06
1.26102e-06
1.26089e-06
1.26111e-06
1.26336e-06
1.26358e-06
1.26335e-06
1.26028e-06
1.25733e-06
1.25733e-06
1.25733e-06
1.25733e-06
1.26087e-06
1.26172e-06
1.2611e-06
1.25733e-06
1.25733e-06
1.25733e-06
1.25733e-06
1.25733e-06
1.25733e-06
1.26194e-06
1.26389e-06
1.26371e-06
1.26102e-06
1.25733e-06
1.25733e-06
1.25733e-06
1.25733e-06
1.25733e-06
1.25733e-06
1.26209e-06
1.26365e-06
1.26354e-06
1.26088e-06
1.25733e-06
1.25733e-06
1.25733e-06
1.25733e-06
1.25733e-06
1.25733e-06
1.26208e-06
1.26186e-06
1.26111e-06
1.25733e-06
1.25733e-06
1.25733e-06
1.25733e-06
1.25733e-06
1.25733e-06
1.26203e-06
1.26398e-06
1.26336e-06
1.26086e-06
1.25733e-06
1.25733e-06
1.25733e-06
1.25733e-06
1.26188e-06
1.26192e-06
1.26388e-06