/*--------------------------------*- C++ -*----------------------------------*\
| =========                 |                                                 |
| \\      /  F ield         | OpenFOAM: The Open Source CFD Toolbox           |
|  \\    /   O peration     | Version:  v2012                                 |
|   \\  /    A nd           | Website:  www.openfoam.com                      |
|    \\/     M anipulation  |                                                 |
\*---------------------------------------------------------------------------*/
FoamFile
{
    version     2.0;
    format      ascii;
    class       volScalarField;
    location    "62500";
    object      p;
}
// * * * * * * * * * * * * * * * * * * * * * * * * * * * * * * * * * * * * * //

dimensions      [0 2 -2 0 0 0 0];


internalField   nonuniform List<scalar> 
171728
(
1.27045e-07
1.26979e-07
1.2698e-07
1.27127e-07
1.24134e-07
1.24058e-07
1.24058e-07
1.24189e-07
1.21975e-07
1.2195e-07
1.2195e-07
1.22058e-07
1.20147e-07
1.2014e-07
1.2014e-07
1.20234e-07
1.18491e-07
1.18491e-07
1.18491e-07
1.1858e-07
1.16939e-07
1.16941e-07
1.16941e-07
1.17025e-07
1.15454e-07
1.15457e-07
1.15457e-07
1.15539e-07
1.14017e-07
1.14019e-07
1.14019e-07
1.14098e-07
1.12613e-07
1.12614e-07
1.12614e-07
1.12692e-07
1.11234e-07
1.11235e-07
1.11235e-07
1.11312e-07
1.09874e-07
1.09875e-07
1.09875e-07
1.09951e-07
1.08528e-07
1.08529e-07
1.08529e-07
1.08604e-07
1.07194e-07
1.07194e-07
1.07194e-07
1.07269e-07
1.05867e-07
1.05868e-07
1.05868e-07
1.05942e-07
1.04548e-07
1.04548e-07
1.04548e-07
1.04622e-07
1.03233e-07
1.03233e-07
1.03233e-07
1.03308e-07
1.01923e-07
1.01923e-07
1.01923e-07
1.01997e-07
1.00615e-07
1.00615e-07
1.00615e-07
1.00689e-07
9.93102e-08
9.93102e-08
9.93102e-08
9.93838e-08
9.8007e-08
9.80069e-08
9.80069e-08
9.80805e-08
9.67053e-08
9.67052e-08
9.67052e-08
9.67787e-08
9.54049e-08
9.54048e-08
9.54048e-08
9.54783e-08
9.41056e-08
9.41055e-08
9.41055e-08
9.41789e-08
9.2807e-08
9.28069e-08
9.28069e-08
9.28802e-08
9.15089e-08
9.15086e-08
9.15086e-08
9.1582e-08
9.02108e-08
9.02106e-08
9.02106e-08
9.0284e-08
8.89129e-08
8.89126e-08
8.89126e-08
8.8986e-08
8.76149e-08
8.76147e-08
8.76147e-08
8.7688e-08
8.6317e-08
8.63167e-08
8.63167e-08
8.63901e-08
8.5019e-08
8.50188e-08
8.50188e-08
8.50921e-08
8.37211e-08
8.37209e-08
8.37209e-08
8.37942e-08
8.24232e-08
8.24229e-08
8.24229e-08
8.24963e-08
8.11252e-08
8.1125e-08
8.1125e-08
8.11984e-08
7.98273e-08
7.98271e-08
7.98271e-08
7.99004e-08
7.85294e-08
7.85291e-08
7.85291e-08
7.86025e-08
7.72314e-08
7.72312e-08
7.72312e-08
7.73045e-08
7.59335e-08
7.59333e-08
7.59333e-08
7.60066e-08
7.46355e-08
7.46353e-08
7.46353e-08
7.47086e-08
7.33376e-08
7.33373e-08
7.33373e-08
7.34107e-08
7.20396e-08
7.20394e-08
7.20394e-08
7.21127e-08
7.07416e-08
7.07414e-08
7.07414e-08
7.08148e-08
6.94437e-08
6.94435e-08
6.94435e-08
6.95168e-08
6.81457e-08
6.81455e-08
6.81455e-08
6.82189e-08
6.68478e-08
6.68476e-08
6.68476e-08
6.69209e-08
6.55498e-08
6.55496e-08
6.55496e-08
6.5623e-08
6.42519e-08
6.42517e-08
6.42517e-08
6.4325e-08
6.29539e-08
6.29537e-08
6.29537e-08
6.30271e-08
6.1656e-08
6.16558e-08
6.16558e-08
6.17291e-08
6.0358e-08
6.03578e-08
6.03578e-08
6.04312e-08
5.90601e-08
5.90599e-08
5.90599e-08
5.91332e-08
5.77621e-08
5.77619e-08
5.77619e-08
5.78353e-08
5.64642e-08
5.6464e-08
5.6464e-08
5.65373e-08
5.51662e-08
5.5166e-08
5.5166e-08
5.52393e-08
5.38683e-08
5.3868e-08
5.3868e-08
5.39414e-08
5.25703e-08
5.25701e-08
5.25701e-08
5.26434e-08
5.12723e-08
5.12721e-08
5.12721e-08
5.13455e-08
4.99744e-08
4.99742e-08
4.99742e-08
5.00475e-08
4.86764e-08
4.86762e-08
4.86762e-08
4.87496e-08
4.73785e-08
4.73783e-08
4.73783e-08
4.74516e-08
4.60806e-08
4.60804e-08
4.60804e-08
4.61537e-08
4.47827e-08
4.47824e-08
4.47824e-08
4.48558e-08
4.34847e-08
4.34845e-08
4.34845e-08
4.35579e-08
4.21868e-08
4.21866e-08
4.21866e-08
4.22599e-08
4.08888e-08
4.08886e-08
4.08886e-08
4.0962e-08
3.95909e-08
3.95907e-08
3.95907e-08
3.9664e-08
3.8293e-08
3.82927e-08
3.82927e-08
3.83661e-08
3.6995e-08
3.69948e-08
3.69948e-08
3.70681e-08
3.56971e-08
3.56968e-08
3.56968e-08
3.57702e-08
3.43991e-08
3.43989e-08
3.43989e-08
3.44722e-08
3.31011e-08
3.31009e-08
3.31009e-08
3.31743e-08
3.18032e-08
3.1803e-08
3.1803e-08
3.18763e-08
3.05052e-08
3.0505e-08
3.0505e-08
3.05784e-08
2.92073e-08
2.9207e-08
2.9207e-08
2.92804e-08
2.79093e-08
2.79091e-08
2.79091e-08
2.79824e-08
2.66114e-08
2.66111e-08
2.66111e-08
2.66845e-08
2.53134e-08
2.53132e-08
2.53132e-08
2.53865e-08
2.40155e-08
2.40153e-08
2.40153e-08
2.40886e-08
2.27175e-08
2.27173e-08
2.27173e-08
2.27907e-08
2.14196e-08
2.14194e-08
2.14194e-08
2.14927e-08
2.01217e-08
2.01215e-08
2.01215e-08
2.01948e-08
1.88238e-08
1.88236e-08
1.88236e-08
1.88969e-08
1.75259e-08
1.75257e-08
1.75257e-08
1.7599e-08
1.6228e-08
1.62277e-08
1.62277e-08
1.63011e-08
1.493e-08
1.49298e-08
1.49298e-08
1.50032e-08
1.36321e-08
1.36319e-08
1.36319e-08
1.37052e-08
1.23342e-08
1.2334e-08
1.2334e-08
1.24073e-08
1.10363e-08
1.10361e-08
1.10361e-08
1.11094e-08
9.73838e-09
9.73816e-09
9.73815e-09
9.81149e-09
8.44046e-09
8.44024e-09
8.44024e-09
8.51358e-09
7.14255e-09
7.14233e-09
7.14233e-09
7.21566e-09
5.84462e-09
5.84443e-09
5.84443e-09
5.91773e-09
4.54672e-09
4.54655e-09
4.54655e-09
4.61982e-09
3.2489e-09
3.24865e-09
3.24864e-09
3.32198e-09
1.95482e-09
1.95064e-09
1.9506e-09
2.02533e-09
6.65584e-10
7.31927e-10
7.31858e-10
6.6311e-10
1.27637e-07
1.27712e-07
1.27712e-07
1.27637e-07
1.27712e-07
1.27712e-07
1.27879e-07
1.27879e-07
1.27879e-07
1.27879e-07
1.27712e-07
1.27712e-07
1.27637e-07
1.27712e-07
1.27712e-07
1.27637e-07
1.27127e-07
1.24529e-07
1.2698e-07
1.2698e-07
1.24672e-07
1.24672e-07
1.27127e-07
1.24529e-07
1.26979e-07
1.2698e-07
1.24672e-07
1.24672e-07
1.2698e-07
1.24672e-07
1.24672e-07
1.27127e-07
1.24529e-07
1.26979e-07
1.24672e-07
1.24672e-07
1.24529e-07
1.24189e-07
1.22329e-07
1.24058e-07
1.24058e-07
1.22441e-07
1.22441e-07
1.24189e-07
1.22329e-07
1.24058e-07
1.24058e-07
1.22441e-07
1.22441e-07
1.24058e-07
1.22441e-07
1.22441e-07
1.24189e-07
1.22329e-07
1.24058e-07
1.22441e-07
1.22441e-07
1.22329e-07
1.22058e-07
1.2047e-07
1.2195e-07
1.2195e-07
1.20573e-07
1.20573e-07
1.22058e-07
1.2047e-07
1.2195e-07
1.2195e-07
1.20573e-07
1.20573e-07
1.2195e-07
1.20573e-07
1.20573e-07
1.22058e-07
1.2047e-07
1.2195e-07
1.20573e-07
1.20573e-07
1.2047e-07
1.20234e-07
1.18798e-07
1.2014e-07
1.2014e-07
1.18892e-07
1.18892e-07
1.20234e-07
1.18798e-07
1.2014e-07
1.2014e-07
1.18892e-07
1.18892e-07
1.2014e-07
1.18892e-07
1.18892e-07
1.20234e-07
1.18798e-07
1.2014e-07
1.18892e-07
1.18892e-07
1.18798e-07
1.1858e-07
1.17232e-07
1.18491e-07
1.18491e-07
1.17321e-07
1.17321e-07
1.1858e-07
1.17232e-07
1.18491e-07
1.18491e-07
1.17321e-07
1.17321e-07
1.18491e-07
1.17321e-07
1.17321e-07
1.1858e-07
1.17232e-07
1.18491e-07
1.17321e-07
1.17321e-07
1.17232e-07
1.17025e-07
1.15738e-07
1.16941e-07
1.16941e-07
1.15823e-07
1.15823e-07
1.17025e-07
1.15738e-07
1.16941e-07
1.16941e-07
1.15823e-07
1.15823e-07
1.16941e-07
1.15823e-07
1.15823e-07
1.17025e-07
1.15738e-07
1.16941e-07
1.15823e-07
1.15823e-07
1.15738e-07
1.15539e-07
1.14293e-07
1.15457e-07
1.15457e-07
1.14375e-07
1.14375e-07
1.15539e-07
1.14293e-07
1.15457e-07
1.15457e-07
1.14375e-07
1.14375e-07
1.15457e-07
1.14375e-07
1.14375e-07
1.15539e-07
1.14293e-07
1.15457e-07
1.14375e-07
1.14375e-07
1.14293e-07
1.14098e-07
1.12883e-07
1.14019e-07
1.14019e-07
1.12963e-07
1.12963e-07
1.14098e-07
1.12883e-07
1.14019e-07
1.14019e-07
1.12963e-07
1.12963e-07
1.14019e-07
1.12963e-07
1.12963e-07
1.14098e-07
1.12883e-07
1.14019e-07
1.12963e-07
1.12963e-07
1.12883e-07
1.12692e-07
1.115e-07
1.12614e-07
1.12614e-07
1.11578e-07
1.11578e-07
1.12692e-07
1.115e-07
1.12614e-07
1.12614e-07
1.11578e-07
1.11578e-07
1.12614e-07
1.11578e-07
1.11578e-07
1.12692e-07
1.115e-07
1.12614e-07
1.11578e-07
1.11578e-07
1.115e-07
1.11312e-07
1.10136e-07
1.11235e-07
1.11235e-07
1.10213e-07
1.10213e-07
1.11312e-07
1.10136e-07
1.11235e-07
1.11235e-07
1.10213e-07
1.10213e-07
1.11235e-07
1.10213e-07
1.10213e-07
1.11312e-07
1.10136e-07
1.11235e-07
1.10213e-07
1.10213e-07
1.10136e-07
1.09951e-07
1.08788e-07
1.09875e-07
1.09875e-07
1.08864e-07
1.08864e-07
1.09951e-07
1.08788e-07
1.09875e-07
1.09875e-07
1.08864e-07
1.08864e-07
1.09875e-07
1.08864e-07
1.08864e-07
1.09951e-07
1.08788e-07
1.09875e-07
1.08864e-07
1.08864e-07
1.08788e-07
1.08604e-07
1.07451e-07
1.08529e-07
1.08529e-07
1.07527e-07
1.07527e-07
1.08604e-07
1.07451e-07
1.08529e-07
1.08529e-07
1.07527e-07
1.07527e-07
1.08529e-07
1.07527e-07
1.07527e-07
1.08604e-07
1.07451e-07
1.08529e-07
1.07527e-07
1.07527e-07
1.07451e-07
1.07269e-07
1.06124e-07
1.07194e-07
1.07194e-07
1.06199e-07
1.06199e-07
1.07269e-07
1.06124e-07
1.07194e-07
1.07194e-07
1.06199e-07
1.06199e-07
1.07194e-07
1.06199e-07
1.06199e-07
1.07269e-07
1.06124e-07
1.07194e-07
1.06199e-07
1.06199e-07
1.06124e-07
1.05942e-07
1.04803e-07
1.05868e-07
1.05868e-07
1.04877e-07
1.04877e-07
1.05942e-07
1.04803e-07
1.05868e-07
1.05868e-07
1.04877e-07
1.04877e-07
1.05868e-07
1.04877e-07
1.04877e-07
1.05942e-07
1.04803e-07
1.05868e-07
1.04877e-07
1.04877e-07
1.04803e-07
1.04622e-07
1.03487e-07
1.04548e-07
1.04548e-07
1.03562e-07
1.03562e-07
1.04622e-07
1.03487e-07
1.04548e-07
1.04548e-07
1.03562e-07
1.03562e-07
1.04548e-07
1.03562e-07
1.03562e-07
1.04622e-07
1.03487e-07
1.04548e-07
1.03562e-07
1.03562e-07
1.03487e-07
1.03308e-07
1.02176e-07
1.03233e-07
1.03233e-07
1.0225e-07
1.0225e-07
1.03308e-07
1.02176e-07
1.03233e-07
1.03233e-07
1.0225e-07
1.0225e-07
1.03233e-07
1.0225e-07
1.0225e-07
1.03308e-07
1.02176e-07
1.03233e-07
1.0225e-07
1.0225e-07
1.02176e-07
1.01997e-07
1.00868e-07
1.01923e-07
1.01923e-07
1.00942e-07
1.00942e-07
1.01997e-07
1.00868e-07
1.01923e-07
1.01923e-07
1.00942e-07
1.00942e-07
1.01923e-07
1.00942e-07
1.00942e-07
1.01997e-07
1.00868e-07
1.01923e-07
1.00942e-07
1.00942e-07
1.00868e-07
1.00689e-07
9.95626e-08
1.00615e-07
1.00615e-07
9.96363e-08
9.96363e-08
1.00689e-07
9.95626e-08
1.00615e-07
1.00615e-07
9.96363e-08
9.96363e-08
1.00615e-07
9.96363e-08
9.96363e-08
1.00689e-07
9.95626e-08
1.00615e-07
9.96363e-08
9.96363e-08
9.95626e-08
9.93838e-08
9.8259e-08
9.93102e-08
9.93102e-08
9.83326e-08
9.83326e-08
9.93838e-08
9.8259e-08
9.93102e-08
9.93102e-08
9.83326e-08
9.83326e-08
9.93102e-08
9.83326e-08
9.83326e-08
9.93838e-08
9.8259e-08
9.93102e-08
9.83326e-08
9.83326e-08
9.8259e-08
9.80805e-08
9.6957e-08
9.80069e-08
9.80069e-08
9.70305e-08
9.70305e-08
9.80805e-08
9.6957e-08
9.80069e-08
9.80069e-08
9.70305e-08
9.70305e-08
9.80069e-08
9.70305e-08
9.70305e-08
9.80805e-08
9.6957e-08
9.80069e-08
9.70305e-08
9.70305e-08
9.6957e-08
9.67787e-08
9.56564e-08
9.67052e-08
9.67052e-08
9.57298e-08
9.57298e-08
9.67787e-08
9.56564e-08
9.67052e-08
9.67052e-08
9.57298e-08
9.57298e-08
9.67052e-08
9.57298e-08
9.57298e-08
9.67787e-08
9.56564e-08
9.67052e-08
9.57298e-08
9.57298e-08
9.56564e-08
9.54782e-08
9.43569e-08
9.54048e-08
9.54048e-08
9.44302e-08
9.44302e-08
9.54782e-08
9.43569e-08
9.54048e-08
9.54048e-08
9.44302e-08
9.44302e-08
9.54048e-08
9.44302e-08
9.44302e-08
9.54783e-08
9.43569e-08
9.54048e-08
9.44302e-08
9.44302e-08
9.43569e-08
9.41789e-08
9.30582e-08
9.41055e-08
9.41055e-08
9.31315e-08
9.31315e-08
9.41788e-08
9.30582e-08
9.41055e-08
9.41055e-08
9.31315e-08
9.31315e-08
9.41055e-08
9.31315e-08
9.31315e-08
9.41789e-08
9.30582e-08
9.41055e-08
9.31315e-08
9.31315e-08
9.30582e-08
9.28802e-08
9.17599e-08
9.28069e-08
9.28069e-08
9.18332e-08
9.18332e-08
9.28802e-08
9.17599e-08
9.28069e-08
9.28069e-08
9.18332e-08
9.18332e-08
9.28069e-08
9.18332e-08
9.18332e-08
9.28802e-08
9.17599e-08
9.28069e-08
9.18332e-08
9.18332e-08
9.17599e-08
9.1582e-08
9.04619e-08
9.15086e-08
9.15086e-08
9.05351e-08
9.05351e-08
9.1582e-08
9.04619e-08
9.15086e-08
9.15086e-08
9.05351e-08
9.05351e-08
9.15086e-08
9.05351e-08
9.05351e-08
9.1582e-08
9.04618e-08
9.15086e-08
9.05351e-08
9.05351e-08
9.04618e-08
9.02839e-08
8.91639e-08
9.02106e-08
9.02106e-08
8.92371e-08
8.92371e-08
9.02839e-08
8.91639e-08
9.02106e-08
9.02106e-08
8.92371e-08
8.92371e-08
9.02106e-08
8.92371e-08
8.92371e-08
9.0284e-08
8.91639e-08
9.02106e-08
8.92371e-08
8.92371e-08
8.91639e-08
8.8986e-08
8.78659e-08
8.89126e-08
8.89126e-08
8.79392e-08
8.79392e-08
8.8986e-08
8.78659e-08
8.89126e-08
8.89126e-08
8.79392e-08
8.79392e-08
8.89126e-08
8.79392e-08
8.79392e-08
8.8986e-08
8.78659e-08
8.89126e-08
8.79392e-08
8.79392e-08
8.78659e-08
8.7688e-08
8.6568e-08
8.76147e-08
8.76147e-08
8.66412e-08
8.66412e-08
8.7688e-08
8.6568e-08
8.76147e-08
8.76147e-08
8.66412e-08
8.66412e-08
8.76147e-08
8.66412e-08
8.66412e-08
8.7688e-08
8.6568e-08
8.76147e-08
8.66412e-08
8.66412e-08
8.6568e-08
8.63901e-08
8.527e-08
8.63167e-08
8.63167e-08
8.53433e-08
8.53433e-08
8.63901e-08
8.527e-08
8.63167e-08
8.63167e-08
8.53433e-08
8.53433e-08
8.63167e-08
8.53433e-08
8.53433e-08
8.63901e-08
8.527e-08
8.63167e-08
8.53433e-08
8.53433e-08
8.527e-08
8.50921e-08
8.39721e-08
8.50188e-08
8.50188e-08
8.40454e-08
8.40454e-08
8.50921e-08
8.39721e-08
8.50188e-08
8.50188e-08
8.40454e-08
8.40454e-08
8.50188e-08
8.40454e-08
8.40454e-08
8.50921e-08
8.39721e-08
8.50188e-08
8.40454e-08
8.40454e-08
8.39721e-08
8.37942e-08
8.26742e-08
8.37209e-08
8.37209e-08
8.27474e-08
8.27474e-08
8.37942e-08
8.26742e-08
8.37209e-08
8.37209e-08
8.27474e-08
8.27474e-08
8.37209e-08
8.27474e-08
8.27474e-08
8.37942e-08
8.26742e-08
8.37209e-08
8.27474e-08
8.27474e-08
8.26742e-08
8.24963e-08
8.13762e-08
8.24229e-08
8.24229e-08
8.14495e-08
8.14495e-08
8.24963e-08
8.13763e-08
8.24229e-08
8.24229e-08
8.14495e-08
8.14495e-08
8.24229e-08
8.14495e-08
8.14495e-08
8.24963e-08
8.13762e-08
8.24229e-08
8.14495e-08
8.14495e-08
8.13762e-08
8.11983e-08
8.00783e-08
8.1125e-08
8.1125e-08
8.01516e-08
8.01516e-08
8.11983e-08
8.00783e-08
8.1125e-08
8.1125e-08
8.01516e-08
8.01516e-08
8.1125e-08
8.01516e-08
8.01516e-08
8.11984e-08
8.00783e-08
8.1125e-08
8.01516e-08
8.01516e-08
8.00783e-08
7.99004e-08
7.87804e-08
7.98271e-08
7.98271e-08
7.88536e-08
7.88536e-08
7.99004e-08
7.87804e-08
7.98271e-08
7.98271e-08
7.88536e-08
7.88536e-08
7.98271e-08
7.88536e-08
7.88536e-08
7.99004e-08
7.87804e-08
7.98271e-08
7.88536e-08
7.88536e-08
7.87804e-08
7.86025e-08
7.74824e-08
7.85291e-08
7.85291e-08
7.75557e-08
7.75557e-08
7.86025e-08
7.74824e-08
7.85291e-08
7.85291e-08
7.75557e-08
7.75557e-08
7.85291e-08
7.75557e-08
7.75557e-08
7.86025e-08
7.74824e-08
7.85291e-08
7.75557e-08
7.75557e-08
7.74824e-08
7.73045e-08
7.61845e-08
7.72312e-08
7.72312e-08
7.62577e-08
7.62577e-08
7.73045e-08
7.61845e-08
7.72312e-08
7.72312e-08
7.62577e-08
7.62577e-08
7.72312e-08
7.62577e-08
7.62577e-08
7.73045e-08
7.61845e-08
7.72312e-08
7.62577e-08
7.62577e-08
7.61845e-08
7.60066e-08
7.48865e-08
7.59333e-08
7.59333e-08
7.49598e-08
7.49598e-08
7.60066e-08
7.48865e-08
7.59333e-08
7.59333e-08
7.49598e-08
7.49598e-08
7.59333e-08
7.49598e-08
7.49598e-08
7.60066e-08
7.48865e-08
7.59333e-08
7.49598e-08
7.49598e-08
7.48865e-08
7.47086e-08
7.35886e-08
7.46353e-08
7.46353e-08
7.36618e-08
7.36618e-08
7.47086e-08
7.35886e-08
7.46353e-08
7.46353e-08
7.36618e-08
7.36618e-08
7.46353e-08
7.36618e-08
7.36618e-08
7.47086e-08
7.35886e-08
7.46353e-08
7.36618e-08
7.36618e-08
7.35886e-08
7.34107e-08
7.22906e-08
7.33373e-08
7.33373e-08
7.23639e-08
7.23639e-08
7.34107e-08
7.22906e-08
7.33373e-08
7.33373e-08
7.23639e-08
7.23639e-08
7.33373e-08
7.23639e-08
7.23639e-08
7.34107e-08
7.22906e-08
7.33373e-08
7.23639e-08
7.23639e-08
7.22906e-08
7.21127e-08
7.09927e-08
7.20394e-08
7.20394e-08
7.10659e-08
7.10659e-08
7.21127e-08
7.09927e-08
7.20394e-08
7.20394e-08
7.10659e-08
7.10659e-08
7.20394e-08
7.10659e-08
7.10659e-08
7.21127e-08
7.09927e-08
7.20394e-08
7.10659e-08
7.10659e-08
7.09927e-08
7.08148e-08
6.96947e-08
7.07414e-08
7.07414e-08
6.9768e-08
6.9768e-08
7.08148e-08
6.96947e-08
7.07414e-08
7.07414e-08
6.9768e-08
6.9768e-08
7.07414e-08
6.9768e-08
6.9768e-08
7.08148e-08
6.96947e-08
7.07414e-08
6.9768e-08
6.9768e-08
6.96947e-08
6.95168e-08
6.83968e-08
6.94435e-08
6.94435e-08
6.847e-08
6.847e-08
6.95168e-08
6.83968e-08
6.94435e-08
6.94435e-08
6.847e-08
6.847e-08
6.94435e-08
6.847e-08
6.847e-08
6.95168e-08
6.83968e-08
6.94435e-08
6.847e-08
6.847e-08
6.83967e-08
6.82189e-08
6.70988e-08
6.81455e-08
6.81455e-08
6.71721e-08
6.71721e-08
6.82189e-08
6.70988e-08
6.81455e-08
6.81455e-08
6.71721e-08
6.71721e-08
6.81455e-08
6.71721e-08
6.71721e-08
6.82189e-08
6.70988e-08
6.81455e-08
6.71721e-08
6.71721e-08
6.70988e-08
6.69209e-08
6.58009e-08
6.68476e-08
6.68476e-08
6.58741e-08
6.58741e-08
6.69209e-08
6.58009e-08
6.68476e-08
6.68476e-08
6.58741e-08
6.58741e-08
6.68476e-08
6.58741e-08
6.58741e-08
6.69209e-08
6.58009e-08
6.68476e-08
6.58741e-08
6.58741e-08
6.58009e-08
6.5623e-08
6.45029e-08
6.55496e-08
6.55496e-08
6.45762e-08
6.45762e-08
6.5623e-08
6.45029e-08
6.55496e-08
6.55496e-08
6.45762e-08
6.45762e-08
6.55496e-08
6.45762e-08
6.45762e-08
6.5623e-08
6.45029e-08
6.55496e-08
6.45762e-08
6.45762e-08
6.45029e-08
6.4325e-08
6.32049e-08
6.42517e-08
6.42517e-08
6.32782e-08
6.32782e-08
6.4325e-08
6.3205e-08
6.42517e-08
6.42517e-08
6.32782e-08
6.32782e-08
6.42517e-08
6.32782e-08
6.32782e-08
6.4325e-08
6.32049e-08
6.42517e-08
6.32782e-08
6.32782e-08
6.32049e-08
6.30271e-08
6.1907e-08
6.29537e-08
6.29537e-08
6.19803e-08
6.19803e-08
6.3027e-08
6.1907e-08
6.29537e-08
6.29537e-08
6.19803e-08
6.19803e-08
6.29537e-08
6.19803e-08
6.19803e-08
6.30271e-08
6.1907e-08
6.29537e-08
6.19803e-08
6.19803e-08
6.1907e-08
6.17291e-08
6.06091e-08
6.16558e-08
6.16558e-08
6.06823e-08
6.06823e-08
6.17291e-08
6.06091e-08
6.16558e-08
6.16558e-08
6.06823e-08
6.06823e-08
6.16558e-08
6.06823e-08
6.06823e-08
6.17291e-08
6.0609e-08
6.16558e-08
6.06823e-08
6.06823e-08
6.0609e-08
6.04312e-08
5.93111e-08
6.03578e-08
6.03578e-08
5.93844e-08
5.93844e-08
6.04312e-08
5.93111e-08
6.03578e-08
6.03578e-08
5.93844e-08
5.93844e-08
6.03578e-08
5.93844e-08
5.93844e-08
6.04312e-08
5.93111e-08
6.03578e-08
5.93844e-08
5.93844e-08
5.93111e-08
5.91332e-08
5.80131e-08
5.90599e-08
5.90599e-08
5.80864e-08
5.80864e-08
5.91332e-08
5.80132e-08
5.90599e-08
5.90599e-08
5.80864e-08
5.80864e-08
5.90599e-08
5.80864e-08
5.80864e-08
5.91332e-08
5.80131e-08
5.90599e-08
5.80864e-08
5.80864e-08
5.80131e-08
5.78353e-08
5.67152e-08
5.77619e-08
5.77619e-08
5.67884e-08
5.67884e-08
5.78352e-08
5.67152e-08
5.77619e-08
5.77619e-08
5.67884e-08
5.67884e-08
5.77619e-08
5.67884e-08
5.67884e-08
5.78353e-08
5.67152e-08
5.77619e-08
5.67884e-08
5.67884e-08
5.67152e-08
5.65373e-08
5.54172e-08
5.6464e-08
5.6464e-08
5.54905e-08
5.54905e-08
5.65373e-08
5.54172e-08
5.6464e-08
5.6464e-08
5.54905e-08
5.54905e-08
5.6464e-08
5.54905e-08
5.54905e-08
5.65373e-08
5.54172e-08
5.6464e-08
5.54905e-08
5.54905e-08
5.54172e-08
5.52393e-08
5.41193e-08
5.5166e-08
5.5166e-08
5.41925e-08
5.41925e-08
5.52393e-08
5.41193e-08
5.5166e-08
5.5166e-08
5.41925e-08
5.41925e-08
5.5166e-08
5.41925e-08
5.41925e-08
5.52393e-08
5.41193e-08
5.5166e-08
5.41925e-08
5.41925e-08
5.41193e-08
5.39414e-08
5.28213e-08
5.3868e-08
5.3868e-08
5.28946e-08
5.28946e-08
5.39414e-08
5.28213e-08
5.3868e-08
5.3868e-08
5.28946e-08
5.28946e-08
5.3868e-08
5.28946e-08
5.28946e-08
5.39414e-08
5.28213e-08
5.3868e-08
5.28946e-08
5.28946e-08
5.28213e-08
5.26434e-08
5.15234e-08
5.25701e-08
5.25701e-08
5.15966e-08
5.15966e-08
5.26434e-08
5.15234e-08
5.25701e-08
5.25701e-08
5.15966e-08
5.15966e-08
5.25701e-08
5.15966e-08
5.15966e-08
5.26434e-08
5.15234e-08
5.25701e-08
5.15966e-08
5.15966e-08
5.15233e-08
5.13455e-08
5.02254e-08
5.12721e-08
5.12721e-08
5.02987e-08
5.02987e-08
5.13455e-08
5.02254e-08
5.12721e-08
5.12721e-08
5.02987e-08
5.02987e-08
5.12721e-08
5.02987e-08
5.02987e-08
5.13455e-08
5.02254e-08
5.12721e-08
5.02987e-08
5.02987e-08
5.02254e-08
5.00475e-08
4.89274e-08
4.99742e-08
4.99742e-08
4.90007e-08
4.90007e-08
5.00475e-08
4.89275e-08
4.99742e-08
4.99742e-08
4.90007e-08
4.90007e-08
4.99742e-08
4.90007e-08
4.90007e-08
5.00475e-08
4.89274e-08
4.99742e-08
4.90007e-08
4.90007e-08
4.89274e-08
4.87496e-08
4.76295e-08
4.86762e-08
4.86762e-08
4.77028e-08
4.77028e-08
4.87496e-08
4.76295e-08
4.86762e-08
4.86762e-08
4.77028e-08
4.77028e-08
4.86762e-08
4.77028e-08
4.77028e-08
4.87496e-08
4.76295e-08
4.86762e-08
4.77028e-08
4.77028e-08
4.76295e-08
4.74516e-08
4.63316e-08
4.73783e-08
4.73783e-08
4.64048e-08
4.64048e-08
4.74516e-08
4.63316e-08
4.73783e-08
4.73783e-08
4.64048e-08
4.64048e-08
4.73783e-08
4.64048e-08
4.64048e-08
4.74516e-08
4.63316e-08
4.73783e-08
4.64048e-08
4.64048e-08
4.63316e-08
4.61537e-08
4.50337e-08
4.60804e-08
4.60804e-08
4.51069e-08
4.51069e-08
4.61537e-08
4.50337e-08
4.60804e-08
4.60804e-08
4.51069e-08
4.51069e-08
4.60804e-08
4.51069e-08
4.51069e-08
4.61537e-08
4.50337e-08
4.60804e-08
4.51069e-08
4.51069e-08
4.50337e-08
4.48558e-08
4.37357e-08
4.47824e-08
4.47824e-08
4.3809e-08
4.3809e-08
4.48558e-08
4.37357e-08
4.47824e-08
4.47824e-08
4.3809e-08
4.3809e-08
4.47824e-08
4.3809e-08
4.3809e-08
4.48558e-08
4.37357e-08
4.47824e-08
4.3809e-08
4.3809e-08
4.37357e-08
4.35578e-08
4.24378e-08
4.34845e-08
4.34845e-08
4.25111e-08
4.2511e-08
4.35578e-08
4.24378e-08
4.34845e-08
4.34845e-08
4.2511e-08
4.25111e-08
4.34845e-08
4.25111e-08
4.25111e-08
4.35578e-08
4.24378e-08
4.34845e-08
4.25111e-08
4.25111e-08
4.24378e-08
4.22599e-08
4.11398e-08
4.21866e-08
4.21866e-08
4.12131e-08
4.12131e-08
4.22599e-08
4.11399e-08
4.21866e-08
4.21866e-08
4.12131e-08
4.12131e-08
4.21866e-08
4.12131e-08
4.12131e-08
4.22599e-08
4.11398e-08
4.21866e-08
4.12131e-08
4.12131e-08
4.11398e-08
4.0962e-08
3.98419e-08
4.08886e-08
4.08886e-08
3.99152e-08
3.99152e-08
4.0962e-08
3.98419e-08
4.08886e-08
4.08886e-08
3.99152e-08
3.99152e-08
4.08886e-08
3.99152e-08
3.99152e-08
4.0962e-08
3.98419e-08
4.08886e-08
3.99152e-08
3.99152e-08
3.98419e-08
3.9664e-08
3.8544e-08
3.95907e-08
3.95907e-08
3.86172e-08
3.86172e-08
3.9664e-08
3.8544e-08
3.95907e-08
3.95907e-08
3.86172e-08
3.86172e-08
3.95907e-08
3.86172e-08
3.86172e-08
3.9664e-08
3.8544e-08
3.95907e-08
3.86172e-08
3.86172e-08
3.8544e-08
3.83661e-08
3.7246e-08
3.82927e-08
3.82927e-08
3.73193e-08
3.73193e-08
3.83661e-08
3.7246e-08
3.82927e-08
3.82927e-08
3.73193e-08
3.73193e-08
3.82927e-08
3.73193e-08
3.73193e-08
3.83661e-08
3.7246e-08
3.82927e-08
3.73193e-08
3.73193e-08
3.7246e-08
3.70681e-08
3.59481e-08
3.69948e-08
3.69948e-08
3.60213e-08
3.60213e-08
3.70681e-08
3.59481e-08
3.69948e-08
3.69948e-08
3.60213e-08
3.60213e-08
3.69948e-08
3.60213e-08
3.60213e-08
3.70681e-08
3.59481e-08
3.69948e-08
3.60213e-08
3.60213e-08
3.59481e-08
3.57702e-08
3.46501e-08
3.56968e-08
3.56968e-08
3.47234e-08
3.47234e-08
3.57702e-08
3.46501e-08
3.56968e-08
3.56968e-08
3.47234e-08
3.47234e-08
3.56968e-08
3.47234e-08
3.47234e-08
3.57702e-08
3.46501e-08
3.56968e-08
3.47234e-08
3.47234e-08
3.46501e-08
3.44722e-08
3.33522e-08
3.43989e-08
3.43989e-08
3.34254e-08
3.34254e-08
3.44722e-08
3.33522e-08
3.43989e-08
3.43989e-08
3.34254e-08
3.34254e-08
3.43989e-08
3.34254e-08
3.34254e-08
3.44722e-08
3.33522e-08
3.43989e-08
3.34254e-08
3.34254e-08
3.33522e-08
3.31743e-08
3.20542e-08
3.31009e-08
3.31009e-08
3.21275e-08
3.21275e-08
3.31743e-08
3.20542e-08
3.31009e-08
3.31009e-08
3.21275e-08
3.21275e-08
3.31009e-08
3.21275e-08
3.21275e-08
3.31743e-08
3.20542e-08
3.31009e-08
3.21275e-08
3.21275e-08
3.20542e-08
3.18763e-08
3.07562e-08
3.1803e-08
3.1803e-08
3.08295e-08
3.08295e-08
3.18763e-08
3.07562e-08
3.1803e-08
3.1803e-08
3.08295e-08
3.08295e-08
3.1803e-08
3.08295e-08
3.08295e-08
3.18763e-08
3.07562e-08
3.1803e-08
3.08295e-08
3.08295e-08
3.07562e-08
3.05783e-08
2.94583e-08
3.0505e-08
3.0505e-08
2.95315e-08
2.95315e-08
3.05783e-08
2.94583e-08
3.0505e-08
3.0505e-08
2.95315e-08
2.95315e-08
3.0505e-08
2.95315e-08
2.95315e-08
3.05784e-08
2.94583e-08
3.0505e-08
2.95315e-08
2.95315e-08
2.94583e-08
2.92804e-08
2.81603e-08
2.9207e-08
2.9207e-08
2.82336e-08
2.82336e-08
2.92804e-08
2.81603e-08
2.9207e-08
2.9207e-08
2.82336e-08
2.82336e-08
2.9207e-08
2.82336e-08
2.82336e-08
2.92804e-08
2.81603e-08
2.9207e-08
2.82336e-08
2.82336e-08
2.81603e-08
2.79824e-08
2.68624e-08
2.79091e-08
2.79091e-08
2.69356e-08
2.69356e-08
2.79824e-08
2.68624e-08
2.79091e-08
2.79091e-08
2.69356e-08
2.69356e-08
2.79091e-08
2.69356e-08
2.69356e-08
2.79824e-08
2.68624e-08
2.79091e-08
2.69356e-08
2.69356e-08
2.68624e-08
2.66845e-08
2.55644e-08
2.66111e-08
2.66111e-08
2.56377e-08
2.56377e-08
2.66845e-08
2.55644e-08
2.66111e-08
2.66111e-08
2.56377e-08
2.56377e-08
2.66111e-08
2.56377e-08
2.56377e-08
2.66845e-08
2.55644e-08
2.66111e-08
2.56377e-08
2.56377e-08
2.55644e-08
2.53865e-08
2.42665e-08
2.53132e-08
2.53132e-08
2.43397e-08
2.43397e-08
2.53865e-08
2.42665e-08
2.53132e-08
2.53132e-08
2.43397e-08
2.43397e-08
2.53132e-08
2.43397e-08
2.43397e-08
2.53865e-08
2.42665e-08
2.53132e-08
2.43397e-08
2.43397e-08
2.42665e-08
2.40886e-08
2.29685e-08
2.40153e-08
2.40153e-08
2.30418e-08
2.30418e-08
2.40886e-08
2.29686e-08
2.40153e-08
2.40153e-08
2.30418e-08
2.30418e-08
2.40153e-08
2.30418e-08
2.30418e-08
2.40886e-08
2.29685e-08
2.40153e-08
2.30418e-08
2.30418e-08
2.29685e-08
2.27907e-08
2.16706e-08
2.27173e-08
2.27173e-08
2.17439e-08
2.17439e-08
2.27907e-08
2.16706e-08
2.27173e-08
2.27173e-08
2.17439e-08
2.17439e-08
2.27173e-08
2.17439e-08
2.17439e-08
2.27907e-08
2.16706e-08
2.27173e-08
2.17439e-08
2.17439e-08
2.16706e-08
2.14927e-08
2.03727e-08
2.14194e-08
2.14194e-08
2.0446e-08
2.0446e-08
2.14927e-08
2.03727e-08
2.14194e-08
2.14194e-08
2.0446e-08
2.0446e-08
2.14194e-08
2.0446e-08
2.0446e-08
2.14927e-08
2.03727e-08
2.14194e-08
2.0446e-08
2.0446e-08
2.03727e-08
2.01948e-08
1.90748e-08
2.01215e-08
2.01215e-08
1.91481e-08
1.91481e-08
2.01948e-08
1.90748e-08
2.01215e-08
2.01215e-08
1.91481e-08
1.91481e-08
2.01215e-08
1.91481e-08
1.91481e-08
2.01948e-08
1.90748e-08
2.01215e-08
1.91481e-08
1.91481e-08
1.90748e-08
1.88969e-08
1.77769e-08
1.88236e-08
1.88236e-08
1.78501e-08
1.78501e-08
1.88969e-08
1.77769e-08
1.88236e-08
1.88236e-08
1.78501e-08
1.78501e-08
1.88236e-08
1.78501e-08
1.78501e-08
1.88969e-08
1.77769e-08
1.88236e-08
1.78501e-08
1.78501e-08
1.77769e-08
1.7599e-08
1.6479e-08
1.75257e-08
1.75257e-08
1.65522e-08
1.65522e-08
1.7599e-08
1.6479e-08
1.75257e-08
1.75257e-08
1.65522e-08
1.65522e-08
1.75257e-08
1.65522e-08
1.65522e-08
1.7599e-08
1.6479e-08
1.75257e-08
1.65522e-08
1.65522e-08
1.6479e-08
1.63011e-08
1.5181e-08
1.62277e-08
1.62277e-08
1.52543e-08
1.52543e-08
1.63011e-08
1.51811e-08
1.62277e-08
1.62277e-08
1.52543e-08
1.52543e-08
1.62277e-08
1.52543e-08
1.52543e-08
1.63011e-08
1.5181e-08
1.62277e-08
1.52543e-08
1.52543e-08
1.5181e-08
1.50032e-08
1.38831e-08
1.49298e-08
1.49298e-08
1.39564e-08
1.39564e-08
1.50032e-08
1.38831e-08
1.49298e-08
1.49298e-08
1.39564e-08
1.39564e-08
1.49298e-08
1.39564e-08
1.39564e-08
1.50032e-08
1.38831e-08
1.49298e-08
1.39564e-08
1.39564e-08
1.38831e-08
1.37052e-08
1.25852e-08
1.36319e-08
1.36319e-08
1.26585e-08
1.26585e-08
1.37052e-08
1.25852e-08
1.36319e-08
1.36319e-08
1.26585e-08
1.26585e-08
1.36319e-08
1.26585e-08
1.26585e-08
1.37052e-08
1.25852e-08
1.36319e-08
1.26585e-08
1.26585e-08
1.25852e-08
1.24073e-08
1.12873e-08
1.2334e-08
1.2334e-08
1.13605e-08
1.13605e-08
1.24073e-08
1.12873e-08
1.2334e-08
1.2334e-08
1.13605e-08
1.13605e-08
1.2334e-08
1.13605e-08
1.13605e-08
1.24073e-08
1.12873e-08
1.2334e-08
1.13605e-08
1.13605e-08
1.12873e-08
1.11094e-08
9.98938e-09
1.10361e-08
1.10361e-08
1.00626e-08
1.00626e-08
1.11094e-08
9.98938e-09
1.10361e-08
1.10361e-08
1.00626e-08
1.00626e-08
1.10361e-08
1.00626e-08
1.00626e-08
1.11094e-08
9.98937e-09
1.10361e-08
1.00626e-08
1.00626e-08
9.98937e-09
9.81149e-09
8.69146e-09
9.73816e-09
9.73815e-09
8.76471e-09
8.76471e-09
9.81148e-09
8.69146e-09
9.73815e-09
9.73815e-09
8.76471e-09
8.76471e-09
9.73816e-09
8.76471e-09
8.76471e-09
9.8115e-09
8.69145e-09
9.73815e-09
8.76471e-09
8.76471e-09
8.69145e-09
8.51357e-09
7.39353e-09
8.44024e-09
8.44024e-09
7.46679e-09
7.46679e-09
8.51356e-09
7.39354e-09
8.44024e-09
8.44024e-09
7.46679e-09
7.46679e-09
8.44024e-09
7.46679e-09
7.46679e-09
8.51358e-09
7.39353e-09
8.44024e-09
7.46679e-09
7.46679e-09
7.39353e-09
7.21565e-09
6.09561e-09
7.14233e-09
7.14233e-09
6.16886e-09
6.16886e-09
7.21564e-09
6.09561e-09
7.14233e-09
7.14233e-09
6.16886e-09
6.16886e-09
7.14233e-09
6.16886e-09
6.16887e-09
7.21565e-09
6.0956e-09
7.14233e-09
6.16886e-09
6.16886e-09
6.0956e-09
5.91773e-09
4.79767e-09
5.84443e-09
5.84443e-09
4.87093e-09
4.87093e-09
5.91772e-09
4.79768e-09
5.84443e-09
5.84443e-09
4.87093e-09
4.87093e-09
5.84443e-09
4.87093e-09
4.87093e-09
5.91773e-09
4.79767e-09
5.84443e-09
4.87093e-09
4.87093e-09
4.79767e-09
4.61982e-09
3.49975e-09
4.54655e-09
4.54655e-09
3.57298e-09
3.57297e-09
4.61981e-09
3.49976e-09
4.54655e-09
4.54655e-09
3.57298e-09
3.57297e-09
4.54655e-09
3.57298e-09
3.57298e-09
4.61982e-09
3.49974e-09
4.54655e-09
3.57297e-09
3.57298e-09
3.49974e-09
3.32197e-09
2.20285e-09
3.24864e-09
3.24864e-09
2.2748e-09
2.2748e-09
3.32196e-09
2.20285e-09
3.24864e-09
3.24864e-09
2.2748e-09
2.27478e-09
3.24865e-09
2.27479e-09
2.27479e-09
3.32198e-09
2.20283e-09
3.24865e-09
2.27478e-09
2.27479e-09
2.20283e-09
2.02534e-09
8.67574e-10
1.95064e-09
1.95063e-09
1.02445e-09
1.02439e-09
2.02531e-09
8.67514e-10
1.95065e-09
1.95059e-09
1.02462e-09
1.02434e-09
1.95061e-09
1.02454e-09
1.02434e-09
2.02533e-09
8.67491e-10
1.95063e-09
1.02444e-09
1.02458e-09
8.67529e-10
6.6316e-10
7.31831e-10
7.31785e-10
6.63112e-10
7.31957e-10
7.31752e-10
6.65565e-10
6.65551e-10
6.65566e-10
7.31766e-10
6.63118e-10
7.31904e-10
1.28378e-07
1.28988e-07
1.28661e-07
1.28661e-07
1.30389e-07
1.29246e-07
1.31775e-07
1.28882e-07
1.30389e-07
1.29246e-07
1.28882e-07
1.31775e-07
1.29543e-07
1.32209e-07
1.32209e-07
1.25743e-07
1.26995e-07
1.2701e-07
1.25705e-07
1.26933e-07
1.25689e-07
1.25743e-07
1.26995e-07
1.2701e-07
1.25705e-07
1.27045e-07
1.27045e-07
1.27045e-07
1.24766e-07
1.24766e-07
1.24766e-07
1.24766e-07
1.25804e-07
1.2705e-07
1.27022e-07
1.26119e-07
1.27085e-07
1.25754e-07
1.2617e-07
1.26933e-07
1.25689e-07
1.25804e-07
1.27022e-07
1.2705e-07
1.26119e-07
1.27085e-07
1.2617e-07
1.25754e-07
1.27066e-07
1.27066e-07
1.25924e-07
1.25738e-07
1.25738e-07
1.23307e-07
1.24114e-07
1.24134e-07
1.23293e-07
1.24108e-07
1.23289e-07
1.23307e-07
1.24114e-07
1.24134e-07
1.23293e-07
1.24134e-07
1.24134e-07
1.24134e-07
1.22475e-07